 Entering Gaussian System, Link 0=g16
 Input=0_opt_freq_from_IRC_re.com
 Output=0_opt_freq_from_IRC_re.log
 Initial command:
 /opt/ohpc/pub/apps/gaussian/avx2/g16/l1.exe "/scratch/g16-tmp/Gau-2456931.inp" -scrdir="/scratch/g16-tmp/"
 Entering Link 1 = /opt/ohpc/pub/apps/gaussian/avx2/g16/l1.exe PID=   2456932.
  
 Copyright (c) 1988-2017, Gaussian, Inc.  All Rights Reserved.
  
 This is part of the Gaussian(R) 16 program.  It is based on
 the Gaussian(R) 09 system (copyright 2009, Gaussian, Inc.),
 the Gaussian(R) 03 system (copyright 2003, Gaussian, Inc.),
 the Gaussian(R) 98 system (copyright 1998, Gaussian, Inc.),
 the Gaussian(R) 94 system (copyright 1995, Gaussian, Inc.),
 the Gaussian 92(TM) system (copyright 1992, Gaussian, Inc.),
 the Gaussian 90(TM) system (copyright 1990, Gaussian, Inc.),
 the Gaussian 88(TM) system (copyright 1988, Gaussian, Inc.),
 the Gaussian 86(TM) system (copyright 1986, Carnegie Mellon
 University), and the Gaussian 82(TM) system (copyright 1983,
 Carnegie Mellon University). Gaussian is a federally registered
 trademark of Gaussian, Inc.
  
 This software contains proprietary and confidential information,
 including trade secrets, belonging to Gaussian, Inc.
  
 This software is provided under written license and may be
 used, copied, transmitted, or stored only in accord with that
 written license.
  
 The following legend is applicable only to US Government
 contracts under FAR:
  
                    RESTRICTED RIGHTS LEGEND
  
 Use, reproduction and disclosure by the US Government is
 subject to restrictions as set forth in subparagraphs (a)
 and (c) of the Commercial Computer Software - Restricted
 Rights clause in FAR 52.227-19.
  
 Gaussian, Inc.
 340 Quinnipiac St., Bldg. 40, Wallingford CT 06492
  
  
 ---------------------------------------------------------------
 Warning -- This program may not be used in any manner that
 competes with the business of Gaussian, Inc. or will provide
 assistance to any competitor of Gaussian, Inc.  The licensee
 of this program is prohibited from giving any competitor of
 Gaussian, Inc. access to this program.  By using this program,
 the user acknowledges that Gaussian, Inc. is engaged in the
 business of creating and licensing software in the field of
 computational chemistry and represents and warrants to the
 licensee that it is not a competitor of Gaussian, Inc. and that
 it will not use this program in any manner prohibited above.
 ---------------------------------------------------------------
  

 Cite this work as:
 Gaussian 16, Revision B.01,
 M. J. Frisch, G. W. Trucks, H. B. Schlegel, G. E. Scuseria, 
 M. A. Robb, J. R. Cheeseman, G. Scalmani, V. Barone, 
 G. A. Petersson, H. Nakatsuji, X. Li, M. Caricato, A. V. Marenich, 
 J. Bloino, B. G. Janesko, R. Gomperts, B. Mennucci, H. P. Hratchian, 
 J. V. Ortiz, A. F. Izmaylov, J. L. Sonnenberg, D. Williams-Young, 
 F. Ding, F. Lipparini, F. Egidi, J. Goings, B. Peng, A. Petrone, 
 T. Henderson, D. Ranasinghe, V. G. Zakrzewski, J. Gao, N. Rega, 
 G. Zheng, W. Liang, M. Hada, M. Ehara, K. Toyota, R. Fukuda, 
 J. Hasegawa, M. Ishida, T. Nakajima, Y. Honda, O. Kitao, H. Nakai, 
 T. Vreven, K. Throssell, J. A. Montgomery, Jr., J. E. Peralta, 
 F. Ogliaro, M. J. Bearpark, J. J. Heyd, E. N. Brothers, K. N. Kudin, 
 V. N. Staroverov, T. A. Keith, R. Kobayashi, J. Normand, 
 K. Raghavachari, A. P. Rendell, J. C. Burant, S. S. Iyengar, 
 J. Tomasi, M. Cossi, J. M. Millam, M. Klene, C. Adamo, R. Cammi, 
 J. W. Ochterski, R. L. Martin, K. Morokuma, O. Farkas, 
 J. B. Foresman, and D. J. Fox, Gaussian, Inc., Wallingford CT, 2016.
 
 ******************************************
 Gaussian 16:  ES64L-G16RevB.01 20-Dec-2017
                 8-Aug-2023 
 ******************************************
 %nprocshared=64
 Will use up to   64 processors via shared memory.
 %mem=64GB
 %chk=0_opt_freq_from_IRC_re.chk
 ----------------------------------------------------------------------
 # opt=(calcall,tight,cartesian) freq b3lyp/gen nosymm scf=(qc,maxcycle
 =1024) pseudo=read
 ----------------------------------------------------------------------
 1/7=10,10=4,18=10,26=3,38=1/1,3;
 2/12=2,15=1,17=6,18=5,29=2,40=1/2;
 3/5=7,11=2,16=1,17=8,25=1,30=1,71=2,74=-5,140=1/1,2,3;
 4//1;
 5/5=2,7=1024,8=3,38=5/8;
 8/6=4,10=90,11=11/1;
 11/6=1,8=1,9=11,15=111,16=1,31=1/1,2,10;
 10/6=1,31=1/2;
 6/7=2,8=2,9=2,10=2,18=1,28=1/1;
 7/7=1,10=1,25=1,30=1/1,2,3,16;
 1/7=10,10=4,18=10,26=3/3(3);
 2/15=1,29=1/2;
 7/7=1,8=1,9=1,25=1,30=1,44=-1/16;
 99/12=1/99;
 2/15=1,29=1/2;
 3/5=7,6=1,11=2,16=1,17=8,25=1,30=1,71=2,74=-5,82=7,140=1/1,2,3;
 4/5=5,16=3,69=1/1;
 5/5=2,7=1024,8=3,38=5/8;
 8/6=4,10=90,11=11/1;
 11/6=1,8=1,9=11,15=111,16=1,31=1/1,2,10;
 10/6=1,31=1/2;
 7/7=1,10=1,25=1,30=1/1,2,3,16;
 1/7=10,10=4,18=10,26=3/3(-8);
 2/15=1,29=1/2;
 6/7=2,8=2,9=2,10=2,18=1,19=2,28=1/1;
 7/7=1,8=1,9=1,25=1,30=1,44=-1/16;
 99/12=1/99;
 ----------------------
 0_opt_freq_from_IRC_re
 ----------------------
 Symbolic Z-matrix:
 Charge =  0 Multiplicity = 1
 C                    -4.81657  -2.38053  -1.22885 
 C                    -3.5109   -2.29757  -1.50439 
 C                    -2.43892  -2.15766  -0.46597 
 O                    -1.61254  -1.04503  -0.80091 
 C                    -0.51943  -0.87424   0.08496 
 C                     0.2185    0.37877  -0.32254 
 C                     1.40538   0.33077  -1.18652 
 O                     1.53342   0.52027   0.23387 
 H                    -5.55436  -2.51404  -2.01294 
 H                    -5.18888  -2.32105  -0.21006 
 H                    -3.16244  -2.34854  -2.53371 
 H                    -1.82039  -3.0707   -0.43613 
 H                    -2.87955  -2.02023   0.53348 
 H                     0.16306  -1.7371    0.04739 
 H                    -0.87549  -0.77093   1.12235 
 H                    -0.37773   1.29026  -0.31163 
 H                     1.67148   1.19659  -1.7898 
 H                     1.76081  -0.62968  -1.55405 
 C                     3.15949   2.29151   1.80259 
 O                     2.5098    2.10849   2.79255 
 O                     3.83718   2.50483   0.83362 
 

 GradGradGradGradGradGradGradGradGradGradGradGradGradGradGradGradGradGrad
 Berny optimization.
 Initialization pass.
 No Z-matrix variables, so optimization will use Cartesian coordinates.
 Trust Radius=3.00D-01 FncErr=1.00D-07 GrdErr=1.00D-06 EigMax=2.50D+02 EigMin=1.00D-04
 Number of steps in this run=     73 maximum allowed number of steps=    126.
 GradGradGradGradGradGradGradGradGradGradGradGradGradGradGradGradGradGrad

 ---------------------------------------------------------------------------------------------------
                            Z-MATRIX (ANGSTROMS AND DEGREES)
   CD    Cent   Atom    N1       Length/X        N2       Alpha/Y        N3        Beta/Z          J
 ---------------------------------------------------------------------------------------------------
      1      1  C        0  -4.816574         -2.380525         -1.228852
      2      2  C        0  -3.510899         -2.297571         -1.504386
      3      3  C        0  -2.438921         -2.157663         -0.465972
      4      4  O        0  -1.612542         -1.045030         -0.800905
      5      5  C        0  -0.519432         -0.874244          0.084958
      6      6  C        0   0.218503          0.378767         -0.322539
      7      7  C        0   1.405384          0.330768         -1.186520
      8      8  O        0   1.533418          0.520273          0.233865
      9      9  H        0  -5.554362         -2.514043         -2.012939
     10     10  H        0  -5.188878         -2.321045         -0.210064
     11     11  H        0  -3.162439         -2.348541         -2.533710
     12     12  H        0  -1.820390         -3.070699         -0.436134
     13     13  H        0  -2.879545         -2.020233          0.533484
     14     14  H        0   0.163061         -1.737103          0.047386
     15     15  H        0  -0.875492         -0.770933          1.122345
     16     16  H        0  -0.377730          1.290262         -0.311633
     17     17  H        0   1.671483          1.196593         -1.789801
     18     18  H        0   1.760812         -0.629677         -1.554053
     19     19  C        0   3.159486          2.291514          1.802589
     20     20  O        0   2.509802          2.108487          2.792552
     21     21  O        0   3.837181          2.504833          0.833616
 ---------------------------------------------------------------------------------------------------
                         Z-Matrix orientation:                         
 ---------------------------------------------------------------------
 Center     Atomic      Atomic             Coordinates (Angstroms)
 Number     Number       Type             X           Y           Z
 ---------------------------------------------------------------------
      1          6           0       -4.816574   -2.380525   -1.228852
      2          6           0       -3.510899   -2.297571   -1.504386
      3          6           0       -2.438921   -2.157663   -0.465972
      4          8           0       -1.612542   -1.045030   -0.800905
      5          6           0       -0.519432   -0.874244    0.084958
      6          6           0        0.218503    0.378767   -0.322539
      7          6           0        1.405384    0.330768   -1.186520
      8          8           0        1.533418    0.520273    0.233865
      9          1           0       -5.554362   -2.514043   -2.012939
     10          1           0       -5.188878   -2.321045   -0.210064
     11          1           0       -3.162439   -2.348541   -2.533710
     12          1           0       -1.820390   -3.070699   -0.436134
     13          1           0       -2.879545   -2.020233    0.533484
     14          1           0        0.163061   -1.737103    0.047386
     15          1           0       -0.875492   -0.770933    1.122345
     16          1           0       -0.377730    1.290262   -0.311633
     17          1           0        1.671483    1.196593   -1.789801
     18          1           0        1.760812   -0.629677   -1.554053
     19          6           0        3.159486    2.291514    1.802589
     20          8           0        2.509802    2.108487    2.792552
     21          8           0        3.837181    2.504833    0.833616
 ---------------------------------------------------------------------
                    Distance matrix (angstroms):
                    1          2          3          4          5
     1  C    0.000000
     2  C    1.337007   0.000000
     3  C    2.506968   1.499005   0.000000
     4  O    3.497500   2.380652   1.425845   0.000000
     5  C    4.739241   3.674337   2.373842   1.417325   0.000000
     6  C    5.812667   4.740041   3.676405   2.368282   1.510178
     7  C    6.787169   5.583820   4.635748   3.339071   2.602619
     8  O    7.132781   6.033813   4.841548   3.663057   2.486171
     9  H    1.084874   2.116891   3.496582   4.377781   5.695668
    10  H    1.086314   2.119300   2.766667   3.842849   4.897346
    11  H    2.107093   1.087902   2.198966   2.665321   4.002057
    12  H    3.175195   2.143994   1.103225   2.068718   2.605464
    13  H    2.643430   2.151381   1.100885   2.082525   2.661691
    14  H    5.180689   4.027419   2.685278   2.085984   1.100788
    15  H    4.863234   4.021904   2.624896   2.077802   1.101646
    16  H    5.832607   4.910392   4.020014   2.686585   2.205096
    17  H    7.430028   6.256814   5.467996   4.097269   3.550098
    18  H    6.814193   5.529491   4.599611   3.481274   2.818809
    19  C    9.728058   8.745846   7.502247   6.378319   5.148468
    20  O    9.486765   8.609638   7.301224   6.312790   5.040239
    21  O   10.149284   9.084251   7.925734   6.706166   5.564057
                    6          7          8          9         10
     6  C    0.000000
     7  C    1.468827   0.000000
     8  O    1.434786   1.438679   0.000000
     9  H    6.674711   7.563992   8.030680   0.000000
    10  H    6.044949   7.174250   7.311595   1.849645   0.000000
    11  H    4.874244   5.464305   6.159597   2.453546   3.083268
    12  H    4.008591   4.747491   4.959033   4.091299   3.458294
    13  H    4.010720   5.181335   5.100802   3.725958   2.444662
    14  H    2.148680   2.709609   2.647338   6.126786   5.389853
    15  H    2.146235   3.427389   2.873927   5.895783   4.773202
    16  H    1.089236   2.205800   2.131417   6.645653   6.016560
    17  H    2.221002   1.088306   2.138152   8.125974   7.869809
    18  H    2.216372   1.088055   2.137930   7.567905   7.277721
    19  C    4.101725   3.981981   2.870938  10.657522   9.747905
    20  O    4.236245   4.495891   3.165854  10.463808   9.375827
    21  O    4.353353   3.836814   3.099275  11.022390  10.288251
                   11         12         13         14         15
    11  H    0.000000
    12  H    2.592765   0.000000
    13  H    3.097659   1.779170   0.000000
    14  H    4.253806   2.438513   3.094173   0.000000
    15  H    4.591918   2.934385   2.433873   1.779779   0.000000
    16  H    5.092457   4.595079   4.234699   3.096173   2.559802
    17  H    6.040544   5.677620   6.038003   3.775866   4.340373
    18  H    5.305904   4.475862   5.274881   2.518692   3.759409
    19  C    8.961045   7.652736   7.528060   5.318746   5.111004
    20  O    8.967078   7.483244   7.155053   5.275575   4.747722
    21  O    9.159083   8.044062   8.104364   5.666687   5.746590
                   16         17         18         19         20
    16  H    0.000000
    17  H    2.528444   0.000000
    18  H    3.130996   1.843589   0.000000
    19  C    4.240794   4.039588   4.664407   0.000000
    20  O    4.317789   4.746819   5.191484   1.198171   0.000000
    21  O    4.533459   3.644730   4.453922   1.201534   2.399261
                   21
    21  O    0.000000
 Symmetry turned off by external request.
 Stoichiometry    C7H10O4
 Framework group  C1[X(C7H10O4)]
 Deg. of freedom    57
 Full point group                 C1      NOp   1
 Rotational constants (GHZ):           3.5993476           0.2817218           0.2678215
 General basis read from cards:  (5D, 7F)
 ======================================================================================================
                                       Pseudopotential Parameters
 ======================================================================================================
  Center     Atomic      Valence      Angular      Power
  Number     Number     Electrons     Momentum     of R      Exponent        Coefficient   SO-Coeffient
 ======================================================================================================
    1          6
                                   No pseudopotential on this center.
    2          6
                                   No pseudopotential on this center.
    3          6
                                   No pseudopotential on this center.
    4          8
                                   No pseudopotential on this center.
    5          6
                                   No pseudopotential on this center.
    6          6
                                   No pseudopotential on this center.
    7          6
                                   No pseudopotential on this center.
    8          8
                                   No pseudopotential on this center.
    9          1
                                   No pseudopotential on this center.
   10          1
                                   No pseudopotential on this center.
   11          1
                                   No pseudopotential on this center.
   12          1
                                   No pseudopotential on this center.
   13          1
                                   No pseudopotential on this center.
   14          1
                                   No pseudopotential on this center.
   15          1
                                   No pseudopotential on this center.
   16          1
                                   No pseudopotential on this center.
   17          1
                                   No pseudopotential on this center.
   18          1
                                   No pseudopotential on this center.
   19          6
                                   No pseudopotential on this center.
   20          8
                                   No pseudopotential on this center.
   21          8
                                   No pseudopotential on this center.
 ======================================================================================================
   248 basis functions,   422 primitive gaussians,   259 cartesian basis functions
    42 alpha electrons       42 beta electrons
       nuclear repulsion energy       549.4394750433 Hartrees.
 NAtoms=   21 NActive=   21 NUniq=   21 SFac= 1.00D+00 NAtFMM=   60 NAOKFM=F Big=F
 Integral buffers will be    131072 words long.
 Raffenetti 2 integral format.
 Two-electron integral symmetry is turned off.
 One-electron integrals computed using PRISM.
   1 Symmetry operations used in ECPInt.
 ECPInt:  NShTT=    3655 NPrTT=   16881 LenC2=    3260 LenP2D=   10174.
 LDataN:  DoStor=T MaxTD1= 4 Len=   56
 NBasis=   248 RedAO= T EigKep=  3.69D-05  NBF=   248
 NBsUse=   248 1.00D-06 EigRej= -1.00D+00 NBFU=   248
 ExpMin= 4.38D-02 ExpMax= 5.48D+03 ExpMxC= 8.25D+02 IAcc=3 IRadAn=         5 AccDes= 0.00D+00
 Harris functional with IExCor=  402 and IRadAn=       5 diagonalized for initial guess.
 HarFok:  IExCor=  402 AccDes= 0.00D+00 IRadAn=         5 IDoV= 1 UseB2=F ITyADJ=14
 ICtDFT=  3500011 ScaDFX=  1.000000  1.000000  1.000000  1.000000
 FoFCou: FMM=F IPFlag=           0 FMFlag=      100000 FMFlg1=           0
         NFxFlg=           0 DoJE=T BraDBF=F KetDBF=T FulRan=T
         wScrn=  0.000000 ICntrl=       500 IOpCl=  0 I1Cent=   200000004 NGrid=           0
         NMat0=    1 NMatS0=      1 NMatT0=    0 NMatD0=    1 NMtDS0=    0 NMtDT0=    0
 Symmetry not used in FoFCou.
 Gradient too large for Newton-Raphson -- use scaled steepest descent instead.
     Accept linear search using points  2 and  3.
 Gradient too large for Newton-Raphson -- use scaled steepest descent instead.
     Minimum is close to point  3 DX= -1.79D-02 DF= -1.34D-05 DXR=  3.08D-02 DFR=  9.53D-04 which will be used.
 Gradient too large for Newton-Raphson -- use scaled steepest descent instead.
 Gradient too large for Newton-Raphson -- use scaled steepest descent instead.
     Minimum is close to point  2 DX=  2.22D-02 DF= -4.76D-07 DXR=  4.25D-02 DFR=  1.81D-03 which will be used.
 Gradient too large for Newton-Raphson -- use scaled steepest descent instead.
     Accept linear search using points  1 and  2.
 LinEq1:  Iter=  0 NonCon=     1 RMS=4.06D-05 Max=1.07D-03 NDo=     1
 AX will form     1 AO Fock derivatives at one time.
 LinEq1:  Iter=  1 NonCon=     1 RMS=4.27D-05 Max=1.42D-03 NDo=     1
 LinEq1:  Iter=  2 NonCon=     1 RMS=2.43D-05 Max=9.11D-04 NDo=     1
 LinEq1:  Iter=  3 NonCon=     1 RMS=1.78D-05 Max=3.03D-04 NDo=     1
 LinEq1:  Iter=  4 NonCon=     1 RMS=5.80D-06 Max=8.40D-05 NDo=     1
 LinEq1:  Iter=  5 NonCon=     1 RMS=3.52D-06 Max=7.90D-05 NDo=     1
 LinEq1:  Iter=  6 NonCon=     1 RMS=1.95D-06 Max=3.16D-05 NDo=     1
 LinEq1:  Iter=  7 NonCon=     1 RMS=8.44D-07 Max=9.99D-06 NDo=     1
 LinEq1:  Iter=  8 NonCon=     1 RMS=6.88D-07 Max=7.96D-06 NDo=     1
 LinEq1:  Iter=  9 NonCon=     1 RMS=1.69D-07 Max=4.42D-06 NDo=     1
 LinEq1:  Iter= 10 NonCon=     1 RMS=8.93D-08 Max=3.93D-06 NDo=     1
 LinEq1:  Iter= 11 NonCon=     1 RMS=6.10D-08 Max=1.86D-06 NDo=     1
 LinEq1:  Iter= 12 NonCon=     1 RMS=2.72D-08 Max=4.41D-07 NDo=     1
 LinEq1:  Iter= 13 NonCon=     1 RMS=1.35D-08 Max=2.47D-07 NDo=     1
 LinEq1:  Iter= 14 NonCon=     0 RMS=5.08D-09 Max=6.13D-08 NDo=     1
 Linear equations converged to 1.315D-08 1.315D-07 after    14 iterations.
     Minimum is close to point  2 DX=  2.41D-05 DF=  0.00D+00 DXR=  2.41D-05 DFR=  0.00D+00 which will be used.
 LinEq1:  Iter=  0 NonCon=     1 RMS=2.97D-08 Max=8.94D-07 NDo=     1
 LinEq1:  Iter=  1 NonCon=     1 RMS=2.41D-08 Max=8.19D-07 NDo=     1
 LinEq1:  Iter=  2 NonCon=     1 RMS=2.66D-08 Max=8.01D-07 NDo=     1
 LinEq1:  Iter=  3 NonCon=     1 RMS=1.45D-08 Max=3.78D-07 NDo=     1
 LinEq1:  Iter=  4 NonCon=     1 RMS=6.02D-09 Max=1.75D-07 NDo=     1
 LinEq1:  Iter=  5 NonCon=     1 RMS=3.53D-09 Max=5.24D-08 NDo=     1
 LinEq1:  Iter=  6 NonCon=     1 RMS=1.90D-09 Max=4.37D-08 NDo=     1
 LinEq1:  Iter=  7 NonCon=     1 RMS=8.22D-10 Max=1.67D-08 NDo=     1
 LinEq1:  Iter=  8 NonCon=     1 RMS=5.23D-10 Max=1.04D-08 NDo=     1
 LinEq1:  Iter=  9 NonCon=     1 RMS=2.99D-10 Max=7.24D-09 NDo=     1
 LinEq1:  Iter= 10 NonCon=     1 RMS=1.60D-10 Max=5.06D-09 NDo=     1
 LinEq1:  Iter= 11 NonCon=     1 RMS=5.63D-11 Max=1.35D-09 NDo=     1
 LinEq1:  Iter= 12 NonCon=     1 RMS=2.49D-11 Max=3.75D-10 NDo=     1
 LinEq1:  Iter= 13 NonCon=     0 RMS=1.39D-11 Max=2.45D-10 NDo=     1
 Linear equations converged to 2.468D-11 2.468D-10 after    13 iterations.
 SCF Done:  E(RB3LYP) =  -573.626899469     a.u. after    8 cycles
            Convg  =    0.1022D-09                    44 Fock formations.
              S**2 =  0.0000                  -V/T =  2.0075
 DoSCS=F DFT=T ScalE2(SS,OS)=  1.000000  1.000000
 Range of M.O.s used for correlation:     1   248
 NBasis=   248 NAE=    42 NBE=    42 NFC=     0 NFV=     0
 NROrb=    248 NOA=    42 NOB=    42 NVA=   206 NVB=   206

 **** Warning!!: The largest alpha MO coefficient is  0.42602882D+02

   1 Symmetry operations used in ECPInt.
 ECPInt:  NShTT=    3655 NPrTT=   16881 LenC2=    3260 LenP2D=   10174.
 LDataN:  DoStor=T MaxTD1= 5 Len=  102
 Number of processors reduced to  60 by ecpmxn.
 Symmetrizing basis deriv contribution to polar:
 IMax=3 JMax=2 DiffMx= 0.00D+00
 G2DrvN: will do    22 centers at a time, making    1 passes.
 Calling FoFCou, ICntrl=  3107 FMM=F I1Cent=   0 AccDes= 0.00D+00.
 End of G2Drv F.D. properties file   721 does not exist.
 End of G2Drv F.D. properties file   722 does not exist.
 End of G2Drv F.D. properties file   788 does not exist.
          IDoAtm=111111111111111111111
          Differentiating once with respect to electric field.
                with respect to dipole field.
          Differentiating once with respect to nuclear coordinates.
 Keep R1 ints in memory in canonical form, NReq=546145033.
          There are    66 degrees of freedom in the 1st order CPHF.  IDoFFX=6 NUNeed=     3.
     63 vectors produced by pass  0 Test12= 1.31D-14 1.52D-09 XBig12= 9.02D+01 4.07D+00.
 AX will form    63 AO Fock derivatives at one time.
     63 vectors produced by pass  1 Test12= 1.31D-14 1.52D-09 XBig12= 2.58D+01 1.59D+00.
     63 vectors produced by pass  2 Test12= 1.31D-14 1.52D-09 XBig12= 3.64D-01 9.26D-02.
     63 vectors produced by pass  3 Test12= 1.31D-14 1.52D-09 XBig12= 1.52D-03 3.99D-03.
     63 vectors produced by pass  4 Test12= 1.31D-14 1.52D-09 XBig12= 3.41D-06 2.15D-04.
     46 vectors produced by pass  5 Test12= 1.31D-14 1.52D-09 XBig12= 5.31D-09 1.24D-05.
      7 vectors produced by pass  6 Test12= 1.31D-14 1.52D-09 XBig12= 5.30D-12 2.63D-07.
      3 vectors produced by pass  7 Test12= 1.31D-14 1.52D-09 XBig12= 4.00D-15 6.57D-09.
 InvSVY:  IOpt=1 It=  1 EMax= 2.66D-15
 Solved reduced A of dimension   371 with    66 vectors.
 Isotropic polarizability for W=    0.000000       96.50 Bohr**3.
 End of Minotr F.D. properties file   721 does not exist.
 End of Minotr F.D. properties file   722 does not exist.
 End of Minotr F.D. properties file   788 does not exist.

 **********************************************************************

            Population analysis using the SCF Density.

 **********************************************************************

 Alpha  occ. eigenvalues --  -19.23548 -19.23481 -19.17732 -19.16693 -10.38893
 Alpha  occ. eigenvalues --  -10.25362 -10.24747 -10.24724 -10.24707 -10.20248
 Alpha  occ. eigenvalues --  -10.19474  -1.14195  -1.10122  -1.08950  -1.05122
 Alpha  occ. eigenvalues --   -0.80502  -0.74955  -0.68199  -0.66925  -0.61030
 Alpha  occ. eigenvalues --   -0.57462  -0.56305  -0.53016  -0.51194  -0.50569
 Alpha  occ. eigenvalues --   -0.50332  -0.49718  -0.49679  -0.48234  -0.46218
 Alpha  occ. eigenvalues --   -0.43598  -0.41237  -0.40301  -0.39191  -0.36592
 Alpha  occ. eigenvalues --   -0.36505  -0.36354  -0.34029  -0.32343  -0.29058
 Alpha  occ. eigenvalues --   -0.28332  -0.27153
 Alpha virt. eigenvalues --   -0.01624  -0.00901   0.00670   0.01128   0.01348
 Alpha virt. eigenvalues --    0.01562   0.02023   0.02181   0.03302   0.04103
 Alpha virt. eigenvalues --    0.04635   0.05176   0.05955   0.06068   0.07137
 Alpha virt. eigenvalues --    0.07602   0.07828   0.08224   0.08775   0.09587
 Alpha virt. eigenvalues --    0.10206   0.10789   0.11432   0.11874   0.12603
 Alpha virt. eigenvalues --    0.13782   0.14357   0.15250   0.15666   0.16770
 Alpha virt. eigenvalues --    0.17228   0.17915   0.18967   0.19413   0.19895
 Alpha virt. eigenvalues --    0.20577   0.20957   0.22449   0.22893   0.23290
 Alpha virt. eigenvalues --    0.23997   0.24463   0.24806   0.25340   0.25805
 Alpha virt. eigenvalues --    0.26517   0.26793   0.27626   0.27901   0.28932
 Alpha virt. eigenvalues --    0.29294   0.29898   0.30332   0.31078   0.32295
 Alpha virt. eigenvalues --    0.33866   0.34800   0.35166   0.36698   0.37799
 Alpha virt. eigenvalues --    0.38137   0.39593   0.39926   0.41575   0.42976
 Alpha virt. eigenvalues --    0.44357   0.59573   0.60675   0.61466   0.64500
 Alpha virt. eigenvalues --    0.65572   0.66637   0.67712   0.69011   0.69473
 Alpha virt. eigenvalues --    0.72117   0.73800   0.75199   0.76506   0.78258
 Alpha virt. eigenvalues --    0.79760   0.80368   0.81912   0.85295   0.86543
 Alpha virt. eigenvalues --    0.88393   0.89435   0.91653   0.92646   0.94883
 Alpha virt. eigenvalues --    0.97587   0.98042   1.01358   1.01715   1.02444
 Alpha virt. eigenvalues --    1.04715   1.05099   1.07986   1.09670   1.11713
 Alpha virt. eigenvalues --    1.12067   1.15639   1.15872   1.17041   1.19501
 Alpha virt. eigenvalues --    1.21837   1.24216   1.25293   1.27175   1.29735
 Alpha virt. eigenvalues --    1.30538   1.31111   1.34239   1.35881   1.38047
 Alpha virt. eigenvalues --    1.39177   1.40578   1.40651   1.42110   1.42569
 Alpha virt. eigenvalues --    1.44860   1.46172   1.47016   1.49101   1.52083
 Alpha virt. eigenvalues --    1.55753   1.57370   1.64554   1.66168   1.67434
 Alpha virt. eigenvalues --    1.72471   1.73659   1.75998   1.77115   1.81248
 Alpha virt. eigenvalues --    1.82178   1.85084   1.87320   1.88780   1.90978
 Alpha virt. eigenvalues --    1.91525   1.93641   1.95291   1.96838   1.98985
 Alpha virt. eigenvalues --    1.99859   2.00675   2.01465   2.03395   2.05729
 Alpha virt. eigenvalues --    2.06946   2.08237   2.08856   2.09603   2.12010
 Alpha virt. eigenvalues --    2.12780   2.13923   2.14505   2.20089   2.21070
 Alpha virt. eigenvalues --    2.22042   2.22725   2.29816   2.33829   2.34889
 Alpha virt. eigenvalues --    2.39606   2.42932   2.45096   2.50187   2.50728
 Alpha virt. eigenvalues --    2.53061   2.56321   2.57547   2.63013   2.64992
 Alpha virt. eigenvalues --    2.67569   2.68712   2.71067   2.73862   2.73965
 Alpha virt. eigenvalues --    2.76675   2.78911   2.80062   2.81273   2.84125
 Alpha virt. eigenvalues --    2.84590   2.89696   2.92971   2.94211   2.95328
 Alpha virt. eigenvalues --    3.00554   3.01352   3.07050   3.09053   3.23810
 Alpha virt. eigenvalues --    3.26749   3.28665   3.29583   3.31376   3.35159
 Alpha virt. eigenvalues --    3.40129   3.43043   3.45438   3.47883   3.55007
 Alpha virt. eigenvalues --    3.68246
          Condensed to atoms (all electrons):
               1          2          3          4          5          6
     1  C    5.049795   0.405898   0.034827   0.000351  -0.015601   0.007369
     2  C    0.405898   5.265498   0.207220  -0.000640   0.001961  -0.058631
     3  C    0.034827   0.207220   5.260566   0.029927  -0.068672  -0.042606
     4  O    0.000351  -0.000640   0.029927   8.450443   0.118362  -0.049167
     5  C   -0.015601   0.001961  -0.068672   0.118362   5.602270  -0.178015
     6  C    0.007369  -0.058631  -0.042606  -0.049167  -0.178015   6.584932
     7  C   -0.000592  -0.006587   0.000368  -0.014040  -0.051038  -0.340585
     8  O    0.000086   0.000103   0.007555   0.005865  -0.087286   0.146251
     9  H    0.385751  -0.037784   0.015281   0.000139   0.000543   0.000013
    10  H    0.429697  -0.097555   0.013017   0.000751   0.001157   0.000245
    11  H   -0.002715   0.352547  -0.035756  -0.000755   0.000211  -0.003270
    12  H   -0.024096   0.037822   0.375386  -0.060442  -0.015340  -0.011902
    13  H    0.030029  -0.083101   0.416717  -0.054208  -0.000700  -0.005738
    14  H   -0.001579  -0.000859   0.005829  -0.053451   0.457628  -0.150621
    15  H    0.002007  -0.009204  -0.033369  -0.054248   0.327182   0.102873
    16  H    0.000675  -0.004317   0.004364   0.003730  -0.046832   0.320759
    17  H    0.000039  -0.000237   0.001294   0.000319  -0.000534  -0.032985
    18  H   -0.000113   0.001183  -0.000590   0.001784   0.035236  -0.081732
    19  C   -0.000013   0.000062  -0.000291   0.000185  -0.000877  -0.002709
    20  O    0.000001  -0.000029  -0.000144   0.000017  -0.009432  -0.003061
    21  O    0.000001   0.000007   0.000094   0.000001   0.006659  -0.009281
               7          8          9         10         11         12
     1  C   -0.000592   0.000086   0.385751   0.429697  -0.002715  -0.024096
     2  C   -0.006587   0.000103  -0.037784  -0.097555   0.352547   0.037822
     3  C    0.000368   0.007555   0.015281   0.013017  -0.035756   0.375386
     4  O   -0.014040   0.005865   0.000139   0.000751  -0.000755  -0.060442
     5  C   -0.051038  -0.087286   0.000543   0.001157   0.000211  -0.015340
     6  C   -0.340585   0.146251   0.000013   0.000245  -0.003270  -0.011902
     7  C    5.426401   0.055785  -0.000010   0.000019  -0.000270   0.000930
     8  O    0.055785   8.329329  -0.000000   0.000000   0.000003   0.000019
     9  H   -0.000010  -0.000000   0.539813  -0.036019  -0.007062  -0.000220
    10  H    0.000019   0.000000  -0.036019   0.547149   0.004503   0.000233
    11  H   -0.000270   0.000003  -0.007062   0.004503   0.551531  -0.003360
    12  H    0.000930   0.000019  -0.000220   0.000233  -0.003360   0.618363
    13  H   -0.001284  -0.000028   0.000183   0.003648   0.004179  -0.051887
    14  H    0.027645   0.014553  -0.000000   0.000000  -0.000014   0.008380
    15  H   -0.012128  -0.008758   0.000000  -0.000002  -0.000002  -0.002712
    16  H    0.042623  -0.034210   0.000000  -0.000000   0.000002  -0.000005
    17  H    0.409315  -0.040126   0.000000  -0.000000   0.000000   0.000000
    18  H    0.415498  -0.041512  -0.000000   0.000000  -0.000000   0.000011
    19  C   -0.005403  -0.002778   0.000000   0.000000   0.000000   0.000003
    20  O    0.010474  -0.003490  -0.000000   0.000000   0.000000  -0.000000
    21  O   -0.001842   0.002119  -0.000000  -0.000000  -0.000000  -0.000000
              13         14         15         16         17         18
     1  C    0.030029  -0.001579   0.002007   0.000675   0.000039  -0.000113
     2  C   -0.083101  -0.000859  -0.009204  -0.004317  -0.000237   0.001183
     3  C    0.416717   0.005829  -0.033369   0.004364   0.001294  -0.000590
     4  O   -0.054208  -0.053451  -0.054248   0.003730   0.000319   0.001784
     5  C   -0.000700   0.457628   0.327182  -0.046832  -0.000534   0.035236
     6  C   -0.005738  -0.150621   0.102873   0.320759  -0.032985  -0.081732
     7  C   -0.001284   0.027645  -0.012128   0.042623   0.409315   0.415498
     8  O   -0.000028   0.014553  -0.008758  -0.034210  -0.040126  -0.041512
     9  H    0.000183  -0.000000   0.000000   0.000000   0.000000  -0.000000
    10  H    0.003648   0.000000  -0.000002  -0.000000  -0.000000   0.000000
    11  H    0.004179  -0.000014  -0.000002   0.000002   0.000000  -0.000000
    12  H   -0.051887   0.008380  -0.002712  -0.000005   0.000000   0.000011
    13  H    0.616462  -0.002206   0.008111  -0.000019  -0.000000  -0.000000
    14  H   -0.002206   0.617659  -0.053233   0.004644   0.000224   0.002207
    15  H    0.008111  -0.053233   0.607678  -0.005740  -0.000139   0.000083
    16  H   -0.000019   0.004644  -0.005740   0.563200  -0.000901   0.000937
    17  H   -0.000000   0.000224  -0.000139  -0.000901   0.557835  -0.039621
    18  H   -0.000000   0.002207   0.000083   0.000937  -0.039621   0.566873
    19  C    0.000001   0.000331  -0.000265  -0.000551  -0.000794   0.000480
    20  O   -0.000000   0.000042  -0.000046   0.000438   0.000152  -0.000097
    21  O   -0.000000  -0.000006  -0.000003   0.000098   0.000772  -0.000090
              19         20         21
     1  C   -0.000013   0.000001   0.000001
     2  C    0.000062  -0.000029   0.000007
     3  C   -0.000291  -0.000144   0.000094
     4  O    0.000185   0.000017   0.000001
     5  C   -0.000877  -0.009432   0.006659
     6  C   -0.002709  -0.003061  -0.009281
     7  C   -0.005403   0.010474  -0.001842
     8  O   -0.002778  -0.003490   0.002119
     9  H    0.000000  -0.000000  -0.000000
    10  H    0.000000   0.000000  -0.000000
    11  H    0.000000   0.000000  -0.000000
    12  H    0.000003  -0.000000  -0.000000
    13  H    0.000001  -0.000000  -0.000000
    14  H    0.000331   0.000042  -0.000006
    15  H   -0.000265  -0.000046  -0.000003
    16  H   -0.000551   0.000438   0.000098
    17  H   -0.000794   0.000152   0.000772
    18  H    0.000480  -0.000097  -0.000090
    19  C    4.505350   0.415934   0.416698
    20  O    0.415934   8.016678  -0.099518
    21  O    0.416698  -0.099518   8.024229
 Mulliken charges:
               1
     1  C   -0.301817
     2  C    0.026644
     3  C   -0.191016
     4  O   -0.324924
     5  C   -0.076880
     6  C   -0.192140
     7  C    0.044721
     8  O   -0.343480
     9  H    0.139372
    10  H    0.133157
    11  H    0.140227
    12  H    0.128817
    13  H    0.119840
    14  H    0.122826
    15  H    0.131917
    16  H    0.151103
    17  H    0.145387
    18  H    0.139462
    19  C    0.674637
    20  O   -0.327917
    21  O   -0.339937
 Sum of Mulliken charges =   0.00000
 Mulliken charges with hydrogens summed into heavy atoms:
               1
     1  C   -0.029288
     2  C    0.166871
     3  C    0.057641
     4  O   -0.324924
     5  C    0.177863
     6  C   -0.041037
     7  C    0.329570
     8  O   -0.343480
    19  C    0.674637
    20  O   -0.327917
    21  O   -0.339937
 APT charges:
               1
     1  C   -0.103237
     2  C   -0.013545
     3  C    0.618760
     4  O   -0.833469
     5  C    0.557605
     6  C    0.343972
     7  C    0.293219
     8  O   -0.619198
     9  H    0.033450
    10  H    0.036018
    11  H    0.024603
    12  H   -0.088345
    13  H   -0.070542
    14  H   -0.069217
    15  H   -0.075039
    16  H   -0.025320
    17  H   -0.006554
    18  H   -0.004631
    19  C    1.149634
    20  O   -0.570499
    21  O   -0.577665
 Sum of APT charges =   0.00000
 APT charges with hydrogens summed into heavy atoms:
               1
     1  C   -0.033768
     2  C    0.011058
     3  C    0.459874
     4  O   -0.833469
     5  C    0.413348
     6  C    0.318652
     7  C    0.282034
     8  O   -0.619198
    19  C    1.149634
    20  O   -0.570499
    21  O   -0.577665
 Electronic spatial extent (au):  <R**2>=           3810.6928
 Charge=              0.0000 electrons
 Dipole moment (field-independent basis, Debye):
    X=             -1.3471    Y=             -1.4500    Z=             -0.8674  Tot=              2.1609
 Quadrupole moment (field-independent basis, Debye-Ang):
   XX=            -66.4476   YY=            -63.0747   ZZ=            -66.6643
   XY=              0.0658   XZ=             -3.2830   YZ=             -0.6860
 Traceless Quadrupole moment (field-independent basis, Debye-Ang):
   XX=             -1.0521   YY=              2.3208   ZZ=             -1.2687
   XY=              0.0658   XZ=             -3.2830   YZ=             -0.6860
 Octapole moment (field-independent basis, Debye-Ang**2):
  XXX=              0.7115  YYY=             45.5538  ZZZ=             -9.5641  XYY=              9.9745
  XXY=            -10.1029  XXZ=              6.5453  XZZ=              9.7963  YZZ=              5.4190
  YYZ=              3.4651  XYZ=              0.4186
 Hexadecapole moment (field-independent basis, Debye-Ang**3):
 XXXX=          -2897.6696 YYYY=          -1344.2579 ZZZZ=           -752.8526 XXXY=           -878.8077
 XXXZ=           -412.2883 YYYX=           -945.3357 YYYZ=           -332.1232 ZZZX=           -485.2065
 ZZZY=           -350.9024 XXYY=           -742.7493 XXZZ=           -566.0916 YYZZ=           -334.1193
 XXYZ=            -73.7978 YYXZ=           -146.4509 ZZXY=           -279.8466
 N-N= 5.494394750433D+02 E-N=-2.439617348587D+03  KE= 5.693512985365D+02
  Exact polarizability: 118.467  14.970  79.656  -5.109  -0.002  91.381
 Approx polarizability: 155.367   8.240 103.046 -22.913  -5.307 140.557
   1 Symmetry operations used in ECPInt.
 ECPInt:  NShTT=    3655 NPrTT=   16881 LenC2=    3260 LenP2D=   10174.
 LDataN:  DoStor=T MaxTD1= 6 Len=  172
 Calling FoFJK, ICntrl=    100127 FMM=F ISym2X=0 I1Cent= 0 IOpClX= 0 NMat=1 NMatS=1 NMatT=0.
 -------------------------------------------------------------------
 Center     Atomic                   Forces (Hartrees/Bohr)
 Number     Number              X              Y              Z
 -------------------------------------------------------------------
      1        6           0.002853494    0.000169268   -0.000847808
      2        6          -0.002350178   -0.000082818    0.001100016
      3        6          -0.000013762    0.000429655   -0.000001732
      4        8          -0.000180100    0.000410115   -0.000628453
      5        6           0.000102318    0.000397640   -0.000252901
      6        6          -0.000619251   -0.001036954   -0.000175443
      7        6          -0.000178095    0.000536908   -0.000875510
      8        8           0.000808615    0.000192384    0.001512061
      9        1          -0.000568089   -0.000099145   -0.000537690
     10        1          -0.000414729    0.000049931    0.000989811
     11        1           0.000312896   -0.000035399   -0.000817734
     12        1           0.000364099   -0.000653175    0.000005304
     13        1          -0.000266503   -0.000035129    0.000368487
     14        1           0.000442474   -0.000465308    0.000012108
     15        1          -0.000166819    0.000059291    0.000622629
     16        1          -0.000440203    0.000719728    0.000013648
     17        1           0.000044262    0.000199958   -0.000119976
     18        1           0.000234539   -0.000759656   -0.000223346
     19        6           0.003177451    0.001754322   -0.002478254
     20        8           0.030052496    0.008561479   -0.045691838
     21        8          -0.033194913   -0.010313096    0.048026621
 -------------------------------------------------------------------
 Cartesian Forces:  Max     0.048026621 RMS     0.010255559

 GradGradGradGradGradGradGradGradGradGradGradGradGradGradGradGradGradGrad
 Berny optimization.
 Search for a local minimum.
 Step number   1 out of a maximum of   73
 All quantities printed in internal units (Hartrees-Bohrs-Radians)
 Second derivative matrix not updated -- analytic derivatives used.
 ITU=  0
     Eigenvalues ---   -0.00006   0.00013   0.00029   0.00081   0.00109
     Eigenvalues ---    0.00135   0.00231   0.00289   0.00936   0.01211
     Eigenvalues ---    0.01498   0.01821   0.02058   0.02732   0.02898
     Eigenvalues ---    0.03780   0.04237   0.04586   0.05663   0.05971
     Eigenvalues ---    0.06421   0.07342   0.08336   0.09597   0.09810
     Eigenvalues ---    0.12195   0.12855   0.13517   0.13971   0.15266
     Eigenvalues ---    0.16300   0.17905   0.19320   0.21140   0.21735
     Eigenvalues ---    0.25199   0.26207   0.27586   0.29684   0.33683
     Eigenvalues ---    0.41838   0.47679   0.52820   0.59423   0.62217
     Eigenvalues ---    0.68175   0.73365   0.77125   0.82023   0.83897
     Eigenvalues ---    0.88947   0.90696   0.94307   0.98010   1.09578
     Eigenvalues ---    1.45869   2.27275
 RFO step:  Lambda=-7.24065474D-03 EMin=-5.89268535D-05
 Linear search not attempted -- first point.
 B after Tr=     0.000168    0.000182   -0.000164
         Rot=    1.000000    0.000051    0.000017    0.000017 Ang=   0.01 deg.
 Variable       Old X    -DE/DX   Delta X   Delta X   Delta X     New X
                                 (Linear)    (Quad)   (Total)
    X1       -9.10201   0.00285   0.00000   0.00153   0.00162  -9.10038
    Y1       -4.49854   0.00017   0.00000  -0.00008   0.00018  -4.49836
    Z1       -2.32219  -0.00085   0.00000  -0.00108  -0.00109  -2.32329
    X2       -6.63464  -0.00235   0.00000  -0.00162  -0.00151  -6.63614
    Y2       -4.34178  -0.00008   0.00000  -0.00003   0.00009  -4.34169
    Z2       -2.84288   0.00110   0.00000   0.00009   0.00014  -2.84273
    X3       -4.60889  -0.00001   0.00000  -0.00035  -0.00029  -4.60919
    Y3       -4.07739   0.00043   0.00000   0.00011   0.00037  -4.07703
    Z3       -0.88056  -0.00000   0.00000  -0.00013  -0.00003  -0.88059
    X4       -3.04726  -0.00018   0.00000  -0.00091  -0.00076  -3.04802
    Y4       -1.97482   0.00041   0.00000   0.00087   0.00101  -1.97381
    Z4       -1.51349  -0.00063   0.00000  -0.00176  -0.00182  -1.51531
    X5       -0.98158   0.00010   0.00000  -0.00042  -0.00032  -0.98190
    Y5       -1.65208   0.00040   0.00000  -0.00095  -0.00072  -1.65280
    Z5        0.16055  -0.00025   0.00000   0.00008   0.00005   0.16060
    X6        0.41291  -0.00062   0.00000  -0.00117  -0.00096   0.41195
    Y6        0.71577  -0.00104   0.00000  -0.00137  -0.00127   0.71450
    Z6       -0.60951  -0.00018   0.00000   0.00120   0.00097  -0.60854
    X7        2.65579  -0.00018   0.00000  -0.00088  -0.00062   2.65517
    Y7        0.62506   0.00054   0.00000   0.00073   0.00059   0.62565
    Z7       -2.24220  -0.00088   0.00000   0.00039   0.00025  -2.24195
    X8        2.89774   0.00081   0.00000   0.00033   0.00052   2.89826
    Y8        0.98317   0.00019   0.00000  -0.00053  -0.00041   0.98277
    Z8        0.44194   0.00151   0.00000   0.00466   0.00450   0.44644
    X9      -10.49622  -0.00057   0.00000  -0.00098  -0.00085 -10.49707
    Y9       -4.75085  -0.00010   0.00000  -0.00015   0.00001  -4.75084
    Z9       -3.80390  -0.00054   0.00000  -0.00173  -0.00176  -3.80566
   X10       -9.80556  -0.00041   0.00000  -0.00104  -0.00101  -9.80657
   Y10       -4.38614   0.00005   0.00000  -0.00053  -0.00004  -4.38618
   Z10       -0.39696   0.00099   0.00000   0.00125   0.00120  -0.39576
   X11       -5.97614   0.00031   0.00000   0.00049   0.00067  -5.97548
   Y11       -4.43810  -0.00004   0.00000   0.00035   0.00026  -4.43784
   Z11       -4.78802  -0.00082   0.00000  -0.00186  -0.00177  -4.78979
   X12       -3.44004   0.00036   0.00000   0.00052   0.00051  -3.43953
   Y12       -5.80278  -0.00065   0.00000  -0.00199  -0.00177  -5.80455
   Z12       -0.82417   0.00001   0.00000  -0.00089  -0.00057  -0.82475
   X13       -5.44155  -0.00027   0.00000  -0.00123  -0.00123  -5.44278
   Y13       -3.81769  -0.00004   0.00000  -0.00091  -0.00044  -3.81813
   Z13        1.00814   0.00037   0.00000   0.00099   0.00104   1.00918
   X14        0.30814   0.00044   0.00000   0.00077   0.00082   0.30896
   Y14       -3.28265  -0.00047   0.00000  -0.00232  -0.00213  -3.28478
   Z14        0.08955   0.00001   0.00000  -0.00034  -0.00016   0.08939
   X15       -1.65444  -0.00017   0.00000  -0.00117  -0.00112  -1.65556
   Y15       -1.45685   0.00006   0.00000  -0.00177  -0.00131  -1.45816
   Z15        2.12092   0.00062   0.00000   0.00184   0.00177   2.12269
   X16       -0.71381  -0.00044   0.00000  -0.00216  -0.00189  -0.71569
   Y16        2.43824   0.00072   0.00000   0.00076   0.00091   2.43915
   Z16       -0.58890   0.00001   0.00000   0.00231   0.00187  -0.58703
   X17        3.15865   0.00004   0.00000  -0.00055  -0.00019   3.15846
   Y17        2.26123   0.00020   0.00000   0.00206   0.00178   2.26302
   Z17       -3.38223  -0.00012   0.00000   0.00156   0.00127  -3.38096
   X18        3.32745   0.00023   0.00000   0.00035   0.00058   3.32803
   Y18       -1.18992  -0.00076   0.00000  -0.00123  -0.00147  -1.19139
   Z18       -2.93673  -0.00022   0.00000   0.00022   0.00029  -2.93645
   X19        5.97056   0.00318   0.00000   0.00400   0.00421   5.97477
   Y19        4.33033   0.00175   0.00000   0.00249   0.00281   4.33315
   Z19        3.40640  -0.00248   0.00000  -0.00272  -0.00313   3.40327
   X20        4.74284   0.03005   0.00000   0.03278   0.03292   4.77576
   Y20        3.98446   0.00856   0.00000   0.00984   0.01039   3.99485
   Z20        5.27716  -0.04569   0.00000  -0.05427  -0.05469   5.22247
   X21        7.25122  -0.03319   0.00000  -0.03139  -0.03112   7.22011
   Y21        4.73345  -0.01031   0.00000  -0.00893  -0.00884   4.72461
   Z21        1.57531   0.04803   0.00000   0.05208   0.05167   1.62698
         Item               Value     Threshold  Converged?
 Maximum Force            0.048027     0.000015     NO 
 RMS     Force            0.010256     0.000010     NO 
 Maximum Displacement     0.054686     0.000060     NO 
 RMS     Displacement     0.011278     0.000040     NO 
 Predicted change in Energy=-3.649353D-03
 GradGradGradGradGradGradGradGradGradGradGradGradGradGradGradGradGradGrad

                          Input orientation:                          
 ---------------------------------------------------------------------
 Center     Atomic      Atomic             Coordinates (Angstroms)
 Number     Number       Type             X           Y           Z
 ---------------------------------------------------------------------
      1          6           0       -4.815715   -2.380431   -1.229430
      2          6           0       -3.511696   -2.297523   -1.504310
      3          6           0       -2.439076   -2.157469   -0.465987
      4          8           0       -1.612943   -1.044497   -0.801869
      5          6           0       -0.519599   -0.874626    0.084985
      6          6           0        0.217996    0.378096   -0.322023
      7          6           0        1.405058    0.331080   -1.186389
      8          8           0        1.533693    0.520058    0.236244
      9          1           0       -5.554811   -2.514036   -2.013871
     10          1           0       -5.189411   -2.321067   -0.209428
     11          1           0       -3.162085   -2.348406   -2.534647
     12          1           0       -1.820119   -3.071638   -0.436437
     13          1           0       -2.880198   -2.020465    0.534032
     14          1           0        0.163495   -1.738233    0.047302
     15          1           0       -0.876085   -0.771626    1.123282
     16          1           0       -0.378729    1.290744   -0.310644
     17          1           0        1.671383    1.197536   -1.789129
     18          1           0        1.761119   -0.630454   -1.553900
     19          6           0        3.161714    2.293003    1.800933
     20          8           0        2.527221    2.113985    2.763613
     21          8           0        3.820715    2.500157    0.860959
 ---------------------------------------------------------------------
                    Distance matrix (angstroms):
                    1          2          3          4          5
     1  C    0.000000
     2  C    1.335252   0.000000
     3  C    2.506186   1.499414   0.000000
     4  O    3.496466   2.380916   1.426190   0.000000
     5  C    4.738327   3.674661   2.373530   1.418014   0.000000
     6  C    5.811290   4.739972   3.675574   2.367775   1.509640
     7  C    6.786173   5.584361   4.635646   3.338921   2.602772
     8  O    7.132742   6.035249   4.842021   3.664263   2.486771
     9  H    1.086031   2.116802   3.497269   4.377993   5.696158
    10  H    1.087923   2.119434   2.767116   3.843403   4.897552
    11  H    2.106919   1.089225   2.199671   2.665059   4.002153
    12  H    3.174932   2.145003   1.104393   2.070208   2.605781
    13  H    2.643028   2.151834   1.101543   2.084006   2.662145
    14  H    5.180250   4.028317   2.685629   2.087604   1.101751
    15  H    4.862529   4.022318   2.624743   2.079332   1.102611
    16  H    5.831683   4.910802   4.019867   2.686622   2.205719
    17  H    7.429505   6.257864   5.468330   4.097340   3.550572
    18  H    6.813401   5.530294   4.599670   3.481562   2.819084
    19  C    9.729514   8.748254   7.504297   6.380504   5.150769
    20  O    9.490146   8.610754   7.303406   6.311072   5.038845
    21  O   10.137938   9.076149   7.914496   6.697329   5.552444
                    6          7          8          9         10
     6  C    0.000000
     7  C    1.469168   0.000000
     8  O    1.436271   1.440883   0.000000
     9  H    6.674734   7.564336   8.032162   0.000000
    10  H    6.044684   7.174633   7.312369   1.851153   0.000000
    11  H    4.873855   5.464086   6.160865   2.454338   3.085035
    12  H    4.008449   4.747913   4.959923   4.092327   3.459338
    13  H    4.010577   5.181991   5.101506   3.726792   2.444496
    14  H    2.149004   2.710263   2.648210   6.127751   5.390660
    15  H    2.146573   3.428433   2.874424   5.896456   4.773015
    16  H    1.090476   2.206758   2.133167   6.645988   6.016484
    17  H    2.221760   1.088564   2.140110   8.126756   7.870611
    18  H    2.217188   1.089216   2.140097   7.568506   7.278437
    19  C    4.103571   3.982346   2.870895  10.660120   9.750512
    20  O    4.226936   4.476664   3.148857  10.467195   9.383767
    21  O    4.345363   3.838220   3.088938  11.013958  10.274839
                   11         12         13         14         15
    11  H    0.000000
    12  H    2.593535   0.000000
    13  H    3.099000   1.780601   0.000000
    14  H    4.254205   2.438585   3.095259   0.000000
    15  H    4.592654   2.934957   2.433779   1.781232   0.000000
    16  H    5.092806   4.596064   4.234965   3.097876   2.560640
    17  H    6.040854   5.678575   6.038998   3.776896   4.341581
    18  H    5.305767   4.475865   5.275738   2.518615   3.760594
    19  C    8.962721   7.655316   7.530985   5.321222   5.114194
    20  O    8.963967   7.485344   7.162743   5.273057   4.753938
    21  O    9.154136   8.034124   8.089817   5.656964   5.730036
                   16         17         18         19         20
    16  H    0.000000
    17  H    2.529341   0.000000
    18  H    3.132992   1.845246   0.000000
    19  C    4.242407   4.038525   4.665102   0.000000
    20  O    4.309679   4.722267   5.172986   1.166783   0.000000
    21  O    4.524453   3.652317   4.458050   1.166511   2.332884
                   21
    21  O    0.000000
 Symmetry turned off by external request.
 Stoichiometry    C7H10O4
 Framework group  C1[X(C7H10O4)]
 Deg. of freedom    57
 Full point group                 C1      NOp   1
 Rotational constants (GHZ):           3.6629696           0.2816860           0.2681368
 Basis read from rwf:  (5D, 7F)
 Pseudo-potential data read from rwf file.
   248 basis functions,   422 primitive gaussians,   259 cartesian basis functions
    42 alpha electrons       42 beta electrons
       nuclear repulsion energy       551.1285046209 Hartrees.
 NAtoms=   21 NActive=   21 NUniq=   21 SFac= 1.00D+00 NAtFMM=   60 NAOKFM=F Big=F
 Integral buffers will be    131072 words long.
 Raffenetti 2 integral format.
 Two-electron integral symmetry is turned off.
 One-electron integrals computed using PRISM.
   1 Symmetry operations used in ECPInt.
 ECPInt:  NShTT=    3655 NPrTT=   16881 LenC2=    3261 LenP2D=   10176.
 LDataN:  DoStor=T MaxTD1= 4 Len=   56
 NBasis=   248 RedAO= T EigKep=  3.68D-05  NBF=   248
 NBsUse=   248 1.00D-06 EigRej= -1.00D+00 NBFU=   248
 Initial guess from the checkpoint file:  "0_opt_freq_from_IRC_re.chk"
 B after Tr=     0.000274    0.000290   -0.000225
         Rot=    1.000000    0.000102    0.000045    0.000040 Ang=   0.01 deg.
 ExpMin= 4.38D-02 ExpMax= 5.48D+03 ExpMxC= 8.25D+02 IAcc=3 IRadAn=         5 AccDes= 0.00D+00
 Harris functional with IExCor=  402 and IRadAn=       5 diagonalized for initial guess.
 HarFok:  IExCor=  402 AccDes= 0.00D+00 IRadAn=         5 IDoV= 1 UseB2=F ITyADJ=14
 ICtDFT=  3500011 ScaDFX=  1.000000  1.000000  1.000000  1.000000
 FoFCou: FMM=F IPFlag=           0 FMFlag=      100000 FMFlg1=           0
         NFxFlg=           0 DoJE=T BraDBF=F KetDBF=T FulRan=T
         wScrn=  0.000000 ICntrl=       500 IOpCl=  0 I1Cent=   200000004 NGrid=           0
         NMat0=    1 NMatS0=      1 NMatT0=    0 NMatD0=    1 NMtDS0=    0 NMtDT0=    0
 Symmetry not used in FoFCou.
 Gradient too large for Newton-Raphson -- use scaled steepest descent instead.
 Gradient too large for Newton-Raphson -- use scaled steepest descent instead.
     Accept linear search using points  2 and  3.
 LinEq1:  Iter=  0 NonCon=     1 RMS=7.58D-05 Max=2.14D-03 NDo=     1
 AX will form     1 AO Fock derivatives at one time.
 LinEq1:  Iter=  1 NonCon=     1 RMS=5.17D-05 Max=2.21D-03 NDo=     1
 LinEq1:  Iter=  2 NonCon=     1 RMS=2.15D-05 Max=7.15D-04 NDo=     1
 LinEq1:  Iter=  3 NonCon=     1 RMS=1.83D-05 Max=5.81D-04 NDo=     1
 LinEq1:  Iter=  4 NonCon=     1 RMS=1.11D-05 Max=2.43D-04 NDo=     1
 LinEq1:  Iter=  5 NonCon=     1 RMS=5.39D-06 Max=8.43D-05 NDo=     1
 LinEq1:  Iter=  6 NonCon=     1 RMS=2.37D-06 Max=4.71D-05 NDo=     1
 LinEq1:  Iter=  7 NonCon=     1 RMS=7.04D-07 Max=1.29D-05 NDo=     1
 LinEq1:  Iter=  8 NonCon=     1 RMS=3.97D-07 Max=1.32D-05 NDo=     1
 LinEq1:  Iter=  9 NonCon=     1 RMS=2.95D-07 Max=8.34D-06 NDo=     1
 LinEq1:  Iter= 10 NonCon=     1 RMS=1.03D-07 Max=3.04D-06 NDo=     1
 LinEq1:  Iter= 11 NonCon=     1 RMS=3.97D-08 Max=5.83D-07 NDo=     1
 LinEq1:  Iter= 12 NonCon=     1 RMS=2.77D-08 Max=4.32D-07 NDo=     1
 LinEq1:  Iter= 13 NonCon=     0 RMS=1.19D-08 Max=9.57D-08 NDo=     1
 Linear equations converged to 1.315D-08 1.315D-07 after    13 iterations.
     Minimum is close to point  2 DX=  4.89D-04 DF= -2.01D-11 DXR=  4.88D-04 DFR=  2.38D-07 which will be used.
 LinEq1:  Iter=  0 NonCon=     1 RMS=1.76D-07 Max=7.25D-06 NDo=     1
 LinEq1:  Iter=  1 NonCon=     1 RMS=1.25D-07 Max=3.50D-06 NDo=     1
 LinEq1:  Iter=  2 NonCon=     1 RMS=1.14D-07 Max=3.71D-06 NDo=     1
 LinEq1:  Iter=  3 NonCon=     1 RMS=5.74D-08 Max=9.67D-07 NDo=     1
 LinEq1:  Iter=  4 NonCon=     1 RMS=1.75D-08 Max=2.99D-07 NDo=     1
 LinEq1:  Iter=  5 NonCon=     1 RMS=7.91D-09 Max=1.12D-07 NDo=     1
 LinEq1:  Iter=  6 NonCon=     1 RMS=3.70D-09 Max=6.41D-08 NDo=     1
 LinEq1:  Iter=  7 NonCon=     1 RMS=2.87D-09 Max=3.98D-08 NDo=     1
 LinEq1:  Iter=  8 NonCon=     1 RMS=8.12D-10 Max=1.10D-08 NDo=     1
 LinEq1:  Iter=  9 NonCon=     1 RMS=4.82D-10 Max=7.93D-09 NDo=     1
 LinEq1:  Iter= 10 NonCon=     1 RMS=2.95D-10 Max=3.39D-09 NDo=     1
 LinEq1:  Iter= 11 NonCon=     1 RMS=1.25D-10 Max=3.13D-09 NDo=     1
 LinEq1:  Iter= 12 NonCon=     1 RMS=8.80D-11 Max=2.82D-09 NDo=     1
 LinEq1:  Iter= 13 NonCon=     0 RMS=4.56D-11 Max=9.23D-10 NDo=     1
 Linear equations converged to 1.907D-10 1.907D-09 after    13 iterations.
 SCF Done:  E(RB3LYP) =  -573.630245203     a.u. after    5 cycles
            Convg  =    0.8895D-10                    37 Fock formations.
              S**2 =  0.0000                  -V/T =  2.0071
 DoSCS=F DFT=T ScalE2(SS,OS)=  1.000000  1.000000
 Range of M.O.s used for correlation:     1   248
 NBasis=   248 NAE=    42 NBE=    42 NFC=     0 NFV=     0
 NROrb=    248 NOA=    42 NOB=    42 NVA=   206 NVB=   206

 **** Warning!!: The largest alpha MO coefficient is  0.42006448D+02

   1 Symmetry operations used in ECPInt.
 ECPInt:  NShTT=    3655 NPrTT=   16881 LenC2=    3261 LenP2D=   10176.
 LDataN:  DoStor=T MaxTD1= 5 Len=  102
 Number of processors reduced to  60 by ecpmxn.
 Symmetrizing basis deriv contribution to polar:
 IMax=3 JMax=2 DiffMx= 0.00D+00
 G2DrvN: will do    22 centers at a time, making    1 passes.
 Calling FoFCou, ICntrl=  3107 FMM=F I1Cent=   0 AccDes= 0.00D+00.
 End of G2Drv F.D. properties file   721 does not exist.
 End of G2Drv F.D. properties file   722 does not exist.
 End of G2Drv F.D. properties file   788 does not exist.
          IDoAtm=111111111111111111111
          Differentiating once with respect to electric field.
                with respect to dipole field.
          Differentiating once with respect to nuclear coordinates.
 Keep R1 ints in memory in canonical form, NReq=546145033.
          There are    66 degrees of freedom in the 1st order CPHF.  IDoFFX=6 NUNeed=     3.
     63 vectors produced by pass  0 Test12= 1.31D-14 1.52D-09 XBig12= 8.84D+01 4.09D+00.
 AX will form    63 AO Fock derivatives at one time.
     63 vectors produced by pass  1 Test12= 1.31D-14 1.52D-09 XBig12= 2.27D+01 1.13D+00.
     63 vectors produced by pass  2 Test12= 1.31D-14 1.52D-09 XBig12= 3.36D-01 9.47D-02.
     63 vectors produced by pass  3 Test12= 1.31D-14 1.52D-09 XBig12= 1.28D-03 3.97D-03.
     63 vectors produced by pass  4 Test12= 1.31D-14 1.52D-09 XBig12= 2.49D-06 1.58D-04.
     45 vectors produced by pass  5 Test12= 1.31D-14 1.52D-09 XBig12= 3.78D-09 9.61D-06.
      7 vectors produced by pass  6 Test12= 1.31D-14 1.52D-09 XBig12= 4.23D-12 2.19D-07.
      3 vectors produced by pass  7 Test12= 1.31D-14 1.52D-09 XBig12= 3.63D-15 5.48D-09.
 InvSVY:  IOpt=1 It=  1 EMax= 4.31D-15
 Solved reduced A of dimension   370 with    66 vectors.
 Isotropic polarizability for W=    0.000000       95.79 Bohr**3.
 End of Minotr F.D. properties file   721 does not exist.
 End of Minotr F.D. properties file   722 does not exist.
 End of Minotr F.D. properties file   788 does not exist.
   1 Symmetry operations used in ECPInt.
 ECPInt:  NShTT=    3655 NPrTT=   16881 LenC2=    3261 LenP2D=   10176.
 LDataN:  DoStor=T MaxTD1= 6 Len=  172
 Calling FoFJK, ICntrl=    100127 FMM=F ISym2X=0 I1Cent= 0 IOpClX= 0 NMat=1 NMatS=1 NMatT=0.
 -------------------------------------------------------------------
 Center     Atomic                   Forces (Hartrees/Bohr)
 Number     Number              X              Y              Z
 -------------------------------------------------------------------
      1        6           0.000003727    0.000000815   -0.000003376
      2        6          -0.000003773    0.000002243    0.000006734
      3        6          -0.000003537    0.000004263    0.000001920
      4        8          -0.000005875    0.000008527   -0.000012207
      5        6          -0.000001984   -0.000004634    0.000000698
      6        6          -0.000009553   -0.000008724    0.000006647
      7        6          -0.000005120    0.000006836   -0.000007077
      8        8           0.000013509    0.000000901    0.000041781
      9        1          -0.000009043   -0.000000793   -0.000011882
     10        1          -0.000008450   -0.000001639    0.000016336
     11        1           0.000003611    0.000002083   -0.000015066
     12        1           0.000004966   -0.000015532   -0.000004433
     13        1          -0.000008832   -0.000004813    0.000009203
     14        1           0.000007080   -0.000017293   -0.000002089
     15        1          -0.000007681   -0.000010717    0.000014729
     16        1          -0.000016118    0.000008297    0.000014776
     17        1          -0.000004154    0.000014158    0.000008999
     18        1           0.000003756   -0.000011773    0.000000084
     19        6          -0.000863204   -0.000343503    0.001018114
     20        8          -0.003455476   -0.000992458    0.005009031
     21        8           0.004366151    0.001363756   -0.006092920
 -------------------------------------------------------------------
 Cartesian Forces:  Max     0.006092920 RMS     0.001247014

 GradGradGradGradGradGradGradGradGradGradGradGradGradGradGradGradGradGrad
 Berny optimization.
 Search for a local minimum.
 Step number   2 out of a maximum of   73
 All quantities printed in internal units (Hartrees-Bohrs-Radians)
 Second derivative matrix not updated -- analytic derivatives used.
 DE= -3.35D-03 DEPred=-3.65D-03 R= 9.17D-01
 TightC=F SS=  1.41D+00  RLast= 8.95D-02 DXNew= 5.0454D-01 2.6856D-01
 Trust test= 9.17D-01 RLast= 8.95D-02 DXMaxT set to 3.00D-01
 ITU=  1  0
     Eigenvalues ---   -0.00224  -0.00086   0.00004   0.00027   0.00039
     Eigenvalues ---    0.00102   0.00140   0.00245   0.00297   0.00326
     Eigenvalues ---    0.00957   0.01232   0.01524   0.02071   0.02780
     Eigenvalues ---    0.03797   0.04255   0.04619   0.05672   0.05994
     Eigenvalues ---    0.06441   0.07354   0.08354   0.09610   0.09865
     Eigenvalues ---    0.12195   0.12869   0.13509   0.13976   0.15268
     Eigenvalues ---    0.16290   0.17888   0.19303   0.19831   0.20844
     Eigenvalues ---    0.21124   0.21715   0.27442   0.29526   0.33581
     Eigenvalues ---    0.41707   0.47419   0.52507   0.59217   0.61922
     Eigenvalues ---    0.67839   0.73028   0.76738   0.81608   0.83429
     Eigenvalues ---    0.88649   0.94073   0.97372   1.09012   1.14861
     Eigenvalues ---    1.46830   2.94244
 RFO step:  Lambda=-2.24152652D-03 EMin=-2.23828105D-03
 I=     1 Eig=   -2.24D-03 Dot1= -5.10D-05
 I=     1 Stepn= -6.00D-01 RXN=   6.00D-01 EDone=F
 I=     2 Eig=   -8.61D-04 Dot1= -1.59D-05
 I=     2 Stepn= -3.00D-01 RXN=   6.71D-01 EDone=F
 Mixed    2 eigenvectors in step.  Raw Step.Grad=  6.69D-05.
 RFO eigenvector is Hessian eigenvector with negative curvature.
 Taking step of  6.00D-01 in eigenvector direction(s).  Step.Grad= -3.42D-05.
 Quintic linear search produced a step of -0.09648.
 Maximum step size (   0.300) exceeded in Quadratic search.
    -- Step size scaled by   0.500
 B after Tr=    -0.001240   -0.002021    0.001876
         Rot=    0.999997    0.001582    0.001666    0.000796 Ang=   0.28 deg.
 Variable       Old X    -DE/DX   Delta X   Delta X   Delta X     New X
                                 (Linear)    (Quad)   (Total)
    X1       -9.10038   0.00000  -0.00016   0.00492   0.00401  -9.09637
    Y1       -4.49836   0.00000  -0.00002  -0.00835  -0.00318  -4.50154
    Z1       -2.32329  -0.00000   0.00011   0.03330   0.01922  -2.30406
    X2       -6.63614  -0.00000   0.00015   0.00116   0.00258  -6.63356
    Y2       -4.34169   0.00000  -0.00001   0.00231   0.00190  -4.33979
    Z2       -2.84273   0.00001  -0.00001   0.01857   0.01206  -2.83068
    X3       -4.60919  -0.00000   0.00003   0.01325   0.00847  -4.60072
    Y3       -4.07703   0.00000  -0.00004  -0.00021   0.00228  -4.07475
    Z3       -0.88059   0.00000   0.00000   0.00656   0.00602  -0.87457
    X4       -3.04802  -0.00001   0.00007   0.00286   0.00360  -3.04442
    Y4       -1.97381   0.00001  -0.00010   0.00710   0.00504  -1.96877
    Z4       -1.51531  -0.00001   0.00018   0.00497   0.00310  -1.51221
    X5       -0.98190  -0.00000   0.00003   0.01527   0.01093  -0.97097
    Y5       -1.65280  -0.00000   0.00007   0.00607   0.00614  -1.64666
    Z5        0.16060   0.00000  -0.00000  -0.00975  -0.00590   0.15470
    X6        0.41195  -0.00001   0.00009   0.00250   0.00459   0.41654
    Y6        0.71450  -0.00001   0.00012   0.01248   0.00794   0.72244
    Z6       -0.60854   0.00001  -0.00009  -0.01440  -0.01353  -0.62206
    X7        2.65517  -0.00001   0.00006  -0.01787  -0.01042   2.64475
    Y7        0.62565   0.00001  -0.00006   0.02249   0.00899   0.63464
    Z7       -2.24195  -0.00001  -0.00002  -0.04304  -0.03441  -2.27636
    X8        2.89826   0.00001  -0.00005   0.01556   0.01451   2.91277
    Y8        0.98277   0.00000   0.00004   0.01403   0.00869   0.99145
    Z8        0.44644   0.00004  -0.00043  -0.04518  -0.03717   0.40926
    X9      -10.49707  -0.00001   0.00008  -0.00323   0.00062 -10.49645
    Y9       -4.75084  -0.00000  -0.00000  -0.00568  -0.00293  -4.75377
    Z9       -3.80566  -0.00001   0.00017   0.04045   0.02256  -3.78310
   X10       -9.80657  -0.00001   0.00010   0.01610   0.00918  -9.79738
   Y10       -4.38618  -0.00000   0.00000  -0.01945  -0.00703  -4.39322
   Z10       -0.39576   0.00002  -0.00012   0.03799   0.02104  -0.37472
   X11       -5.97548   0.00000  -0.00006  -0.01105  -0.00348  -5.97895
   Y11       -4.43784   0.00000  -0.00002   0.01359   0.00594  -4.43190
   Z11       -4.78979  -0.00002   0.00017   0.01383   0.00996  -4.77983
   X12       -3.43953   0.00000  -0.00005   0.01845   0.01070  -3.42883
   Y12       -5.80455  -0.00002   0.00017   0.00284   0.00382  -5.80074
   Z12       -0.82475  -0.00000   0.00006  -0.00860   0.00027  -0.82448
   X13       -5.44278  -0.00001   0.00012   0.02468   0.01408  -5.42871
   Y13       -3.81813  -0.00000   0.00004  -0.01072  -0.00084  -3.81897
   Z13        1.00918   0.00001  -0.00010   0.01303   0.00883   1.01801
   X14        0.30896   0.00001  -0.00008   0.01866   0.01190   0.32086
   Y14       -3.28478  -0.00002   0.00021   0.00946   0.00734  -3.27744
   Z14        0.08939  -0.00000   0.00002  -0.02594  -0.01260   0.07679
   X15       -1.65556  -0.00001   0.00011   0.02999   0.01948  -1.63608
   Y15       -1.45816  -0.00001   0.00013  -0.00267   0.00473  -1.45343
   Z15        2.12269   0.00001  -0.00017  -0.00387  -0.00299   2.11971
   X16       -0.71569  -0.00002   0.00018  -0.00048   0.00431  -0.71138
   Y16        2.43915   0.00001  -0.00009   0.01015   0.00732   2.44648
   Z16       -0.58703   0.00001  -0.00018   0.00666  -0.00177  -0.58880
   X17        3.15846  -0.00000   0.00002  -0.03509  -0.02127   3.13719
   Y17        2.26302   0.00001  -0.00017   0.02707   0.00906   2.27208
   Z17       -3.38096   0.00001  -0.00012  -0.04396  -0.03899  -3.41996
   X18        3.32803   0.00000  -0.00006  -0.02279  -0.01600   3.31203
   Y18       -1.19139  -0.00001   0.00014   0.02608   0.00948  -1.18190
   Z18       -2.93645   0.00000  -0.00003  -0.05720  -0.04062  -2.97706
   X19        5.97477  -0.00086  -0.00041  -0.01659  -0.02279   5.95199
   Y19        4.33315  -0.00034  -0.00027  -0.02372  -0.02465   4.30849
   Z19        3.40327   0.00102   0.00030   0.01899   0.02737   3.43064
   X20        4.77576  -0.00346  -0.00318  -0.15684  -0.17204   4.60371
   Y20        3.99485  -0.00099  -0.00100   0.04587   0.05186   4.04672
   Z20        5.22247   0.00501   0.00528  -0.06056  -0.05085   5.17163
   X21        7.22011   0.00437   0.00300   0.12367   0.12704   7.34714
   Y21        4.72461   0.00136   0.00085  -0.09450  -0.10189   4.62272
   Z21        1.62698  -0.00609  -0.00499   0.10166   0.10840   1.73537
         Item               Value     Threshold  Converged?
 Maximum Force            0.006093     0.000015     NO 
 RMS     Force            0.001247     0.000010     NO 
 Maximum Displacement     0.172044     0.000060     NO 
 RMS     Displacement     0.036898     0.000040     NO 
 Predicted change in Energy=-1.646858D-04
 GradGradGradGradGradGradGradGradGradGradGradGradGradGradGradGradGradGrad

                          Input orientation:                          
 ---------------------------------------------------------------------
 Center     Atomic      Atomic             Coordinates (Angstroms)
 Number     Number       Type             X           Y           Z
 ---------------------------------------------------------------------
      1          6           0       -4.813591   -2.382113   -1.219258
      2          6           0       -3.510329   -2.296520   -1.497930
      3          6           0       -2.434596   -2.156263   -0.462804
      4          8           0       -1.611037   -1.041830   -0.800227
      5          6           0       -0.513815   -0.871377    0.081864
      6          6           0        0.220423    0.382298   -0.329181
      7          6           0        1.399543    0.335835   -1.204600
      8          8           0        1.541370    0.524654    0.216573
      9          1           0       -5.554482   -2.515588   -2.001931
     10          1           0       -5.184552   -2.324790   -0.198296
     11          1           0       -3.163925   -2.345261   -2.529378
     12          1           0       -1.814459   -3.069617   -0.436294
     13          1           0       -2.872747   -2.020911    0.538707
     14          1           0        0.169792   -1.734346    0.040635
     15          1           0       -0.865775   -0.769122    1.121700
     16          1           0       -0.376447    1.294620   -0.311581
     17          1           0        1.660128    1.202332   -1.809763
     18          1           0        1.752649   -0.625437   -1.575394
     19          6           0        3.149655    2.279957    1.815419
     20          8           0        2.436179    2.141430    2.736707
     21          8           0        3.887941    2.446237    0.918320
 ---------------------------------------------------------------------
                    Distance matrix (angstroms):
                    1          2          3          4          5
     1  C    0.000000
     2  C    1.335468   0.000000
     3  C    2.506561   1.499453   0.000000
     4  O    3.496898   2.380829   1.426206   0.000000
     5  C    4.739548   3.675035   2.374236   1.418110   0.000000
     6  C    5.811669   4.739256   3.675768   2.367334   1.509889
     7  C    6.781629   5.578725   4.632649   3.335427   2.602554
     8  O    7.134174   6.034750   4.843261   3.664072   2.488139
     9  H    1.085962   2.116736   3.497388   4.377992   5.696838
    10  H    1.087779   2.119640   2.767784   3.844258   4.899662
    11  H    2.106934   1.089154   2.199630   2.664650   4.001751
    12  H    3.174978   2.144930   1.104304   2.070204   2.606228
    13  H    2.643441   2.151828   1.101509   2.084048   2.663587
    14  H    5.180833   4.028214   2.685945   2.087577   1.101696
    15  H    4.864881   4.023564   2.626026   2.079324   1.102538
    16  H    5.833566   4.911713   4.020875   2.687376   2.205723
    17  H    7.423340   6.250826   5.464542   4.093403   3.550288
    18  H    6.806486   5.522450   4.595030   3.476874   2.818483
    19  C    9.713776   8.733717   7.486935   6.367108   5.133919
    20  O    9.416542   8.543331   7.240959   6.246840   4.982736
    21  O   10.178352   9.114077   7.941346   6.734892   5.575094
                    6          7          8          9         10
     6  C    0.000000
     7  C    1.469300   0.000000
     8  O    1.436319   1.440660   0.000000
     9  H    6.674232   7.558096   8.032182   0.000000
    10  H    6.046421   7.172300   7.316384   1.851042   0.000000
    11  H    4.871782   5.456057   6.157635   2.453971   3.085012
    12  H    4.008483   4.745230   4.960505   4.092180   3.459615
    13  H    4.012025   5.181297   5.105693   3.727097   2.445395
    14  H    2.149304   2.710821   2.648634   6.127783   5.392097
    15  H    2.147242   3.429908   2.878795   5.898406   4.776434
    16  H    1.090365   2.207010   2.133030   6.647332   6.019206
    17  H    2.222010   1.088551   2.139950   8.118526   7.866833
    18  H    2.217272   1.089135   2.139742   7.559681   7.273854
    19  C    4.096439   3.995375   2.867747  10.645723   9.732304
    20  O    4.171785   4.457431   3.125015  10.391977   9.307895
    21  O    4.389395   3.892648   3.113089  11.059246  10.311142
                   11         12         13         14         15
    11  H    0.000000
    12  H    2.593598   0.000000
    13  H    3.098893   1.780557   0.000000
    14  H    4.253452   2.438783   3.096327   0.000000
    15  H    4.593047   2.935919   2.436143   1.781223   0.000000
    16  H    5.092877   4.596738   4.236420   3.097914   2.559838
    17  H    6.031148   5.675273   6.037513   3.777453   4.342843
    18  H    5.295336   4.471670   5.273619   2.519259   3.761795
    19  C    8.951603   7.637446   7.509779   5.305099   5.089382
    20  O    8.900743   7.435784   7.095139   5.237075   4.688546
    21  O    9.196406   8.048415   8.112116   5.663236   5.742622
                   16         17         18         19         20
    16  H    0.000000
    17  H    2.529961   0.000000
    18  H    3.133192   1.845055   0.000000
    19  C    4.234196   4.064715   4.678734   0.000000
    20  O    4.233204   4.706861   5.168847   1.173460   0.000000
    21  O    4.585180   3.735356   4.495916   1.173670   2.346710
                   21
    21  O    0.000000
 Symmetry turned off by external request.
 Stoichiometry    C7H10O4
 Framework group  C1[X(C7H10O4)]
 Deg. of freedom    57
 Full point group                 C1      NOp   1
 Rotational constants (GHZ):           3.6345835           0.2825640           0.2686408
 Basis read from rwf:  (5D, 7F)
 Pseudo-potential data read from rwf file.
   248 basis functions,   422 primitive gaussians,   259 cartesian basis functions
    42 alpha electrons       42 beta electrons
       nuclear repulsion energy       550.8864609891 Hartrees.
 NAtoms=   21 NActive=   21 NUniq=   21 SFac= 1.00D+00 NAtFMM=   60 NAOKFM=F Big=F
 Integral buffers will be    131072 words long.
 Raffenetti 2 integral format.
 Two-electron integral symmetry is turned off.
 One-electron integrals computed using PRISM.
   1 Symmetry operations used in ECPInt.
 ECPInt:  NShTT=    3655 NPrTT=   16881 LenC2=    3261 LenP2D=   10177.
 LDataN:  DoStor=T MaxTD1= 4 Len=   56
 NBasis=   248 RedAO= T EigKep=  3.68D-05  NBF=   248
 NBsUse=   248 1.00D-06 EigRej= -1.00D+00 NBFU=   248
 Initial guess from the checkpoint file:  "0_opt_freq_from_IRC_re.chk"
 B after Tr=    -0.001603   -0.003575    0.001961
         Rot=    0.999984    0.003910    0.003658    0.001914 Ang=   0.65 deg.
 ExpMin= 4.38D-02 ExpMax= 5.48D+03 ExpMxC= 8.25D+02 IAcc=3 IRadAn=         5 AccDes= 0.00D+00
 Harris functional with IExCor=  402 and IRadAn=       5 diagonalized for initial guess.
 HarFok:  IExCor=  402 AccDes= 0.00D+00 IRadAn=         5 IDoV= 1 UseB2=F ITyADJ=14
 ICtDFT=  3500011 ScaDFX=  1.000000  1.000000  1.000000  1.000000
 FoFCou: FMM=F IPFlag=           0 FMFlag=      100000 FMFlg1=           0
         NFxFlg=           0 DoJE=T BraDBF=F KetDBF=T FulRan=T
         wScrn=  0.000000 ICntrl=       500 IOpCl=  0 I1Cent=   200000004 NGrid=           0
         NMat0=    1 NMatS0=      1 NMatT0=    0 NMatD0=    1 NMtDS0=    0 NMtDT0=    0
 Symmetry not used in FoFCou.
 Gradient too large for Newton-Raphson -- use scaled steepest descent instead.
     Accept linear search using points  3 and  4.
 Gradient too large for Newton-Raphson -- use scaled steepest descent instead.
     Accept linear search using points  2 and  3.
 Gradient too large for Newton-Raphson -- use scaled steepest descent instead.
     Accept linear search using points  1 and  2.
     Minimum is close to point  2 DX= -6.39D-02 DF= -2.22D-06 DXR=  6.83D-02 DFR=  4.69D-03 which will be used.
 Gradient too large for Newton-Raphson -- use scaled steepest descent instead.
     Accept linear search using points  1 and  2.
 Gradient too large for Newton-Raphson -- use scaled steepest descent instead.
 Gradient too large for Newton-Raphson -- use scaled steepest descent instead.
     Accept linear search using points  1 and  2.
 LinEq1:  Iter=  0 NonCon=     1 RMS=8.59D-05 Max=5.98D-03 NDo=     1
 AX will form     1 AO Fock derivatives at one time.
 LinEq1:  Iter=  1 NonCon=     1 RMS=2.69D-05 Max=1.11D-03 NDo=     1
 LinEq1:  Iter=  2 NonCon=     1 RMS=1.83D-05 Max=5.12D-04 NDo=     1
 LinEq1:  Iter=  3 NonCon=     1 RMS=1.33D-05 Max=3.50D-04 NDo=     1
 LinEq1:  Iter=  4 NonCon=     1 RMS=6.41D-06 Max=1.16D-04 NDo=     1
 LinEq1:  Iter=  5 NonCon=     1 RMS=2.90D-06 Max=4.20D-05 NDo=     1
 LinEq1:  Iter=  6 NonCon=     1 RMS=1.73D-06 Max=2.10D-05 NDo=     1
 LinEq1:  Iter=  7 NonCon=     1 RMS=8.47D-07 Max=1.38D-05 NDo=     1
 LinEq1:  Iter=  8 NonCon=     1 RMS=5.86D-07 Max=7.61D-06 NDo=     1
 LinEq1:  Iter=  9 NonCon=     1 RMS=1.77D-07 Max=1.76D-06 NDo=     1
 LinEq1:  Iter= 10 NonCon=     1 RMS=1.07D-07 Max=1.21D-06 NDo=     1
 LinEq1:  Iter= 11 NonCon=     1 RMS=4.01D-08 Max=7.24D-07 NDo=     1
 LinEq1:  Iter= 12 NonCon=     1 RMS=2.27D-08 Max=5.51D-07 NDo=     1
 LinEq1:  Iter= 13 NonCon=     1 RMS=1.26D-08 Max=4.32D-07 NDo=     1
 LinEq1:  Iter= 14 NonCon=     0 RMS=6.95D-09 Max=1.23D-07 NDo=     1
 Linear equations converged to 1.315D-08 1.315D-07 after    14 iterations.
     Accept linear search using points  1 and  2.
     Minimum is close to point  2 DX= -3.01D-04 DF= -7.39D-12 DXR=  3.01D-04 DFR=  9.01D-08 which will be used.
 LinEq1:  Iter=  0 NonCon=     1 RMS=2.69D-07 Max=9.43D-06 NDo=     1
 LinEq1:  Iter=  1 NonCon=     1 RMS=8.47D-08 Max=4.02D-06 NDo=     1
 LinEq1:  Iter=  2 NonCon=     1 RMS=2.14D-08 Max=4.66D-07 NDo=     1
 LinEq1:  Iter=  3 NonCon=     1 RMS=1.92D-08 Max=4.93D-07 NDo=     1
 LinEq1:  Iter=  4 NonCon=     1 RMS=1.29D-08 Max=3.85D-07 NDo=     1
 LinEq1:  Iter=  5 NonCon=     1 RMS=9.93D-09 Max=3.17D-07 NDo=     1
 LinEq1:  Iter=  6 NonCon=     1 RMS=3.31D-09 Max=8.22D-08 NDo=     1
 LinEq1:  Iter=  7 NonCon=     1 RMS=2.42D-09 Max=5.17D-08 NDo=     1
 LinEq1:  Iter=  8 NonCon=     1 RMS=1.15D-09 Max=2.26D-08 NDo=     1
 LinEq1:  Iter=  9 NonCon=     1 RMS=6.09D-10 Max=1.48D-08 NDo=     1
 LinEq1:  Iter= 10 NonCon=     1 RMS=4.01D-10 Max=1.18D-08 NDo=     1
 LinEq1:  Iter= 11 NonCon=     0 RMS=1.76D-10 Max=2.55D-09 NDo=     1
 Linear equations converged to 2.921D-10 2.921D-09 after    11 iterations.
 SCF Done:  E(RB3LYP) =  -573.630247920     a.u. after    9 cycles
            Convg  =    0.1197D-09                    43 Fock formations.
              S**2 =  0.0000                  -V/T =  2.0072
 DoSCS=F DFT=T ScalE2(SS,OS)=  1.000000  1.000000
 Range of M.O.s used for correlation:     1   248
 NBasis=   248 NAE=    42 NBE=    42 NFC=     0 NFV=     0
 NROrb=    248 NOA=    42 NOB=    42 NVA=   206 NVB=   206

 **** Warning!!: The largest alpha MO coefficient is  0.42108404D+02

   1 Symmetry operations used in ECPInt.
 ECPInt:  NShTT=    3655 NPrTT=   16881 LenC2=    3261 LenP2D=   10177.
 LDataN:  DoStor=T MaxTD1= 5 Len=  102
 Number of processors reduced to  60 by ecpmxn.
 Symmetrizing basis deriv contribution to polar:
 IMax=3 JMax=2 DiffMx= 0.00D+00
 G2DrvN: will do    22 centers at a time, making    1 passes.
 Calling FoFCou, ICntrl=  3107 FMM=F I1Cent=   0 AccDes= 0.00D+00.
 End of G2Drv F.D. properties file   721 does not exist.
 End of G2Drv F.D. properties file   722 does not exist.
 End of G2Drv F.D. properties file   788 does not exist.
          IDoAtm=111111111111111111111
          Differentiating once with respect to electric field.
                with respect to dipole field.
          Differentiating once with respect to nuclear coordinates.
 Keep R1 ints in memory in canonical form, NReq=546145033.
          There are    66 degrees of freedom in the 1st order CPHF.  IDoFFX=6 NUNeed=     3.
     63 vectors produced by pass  0 Test12= 1.31D-14 1.52D-09 XBig12= 9.06D+01 4.09D+00.
 AX will form    63 AO Fock derivatives at one time.
     63 vectors produced by pass  1 Test12= 1.31D-14 1.52D-09 XBig12= 2.61D+01 1.25D+00.
     63 vectors produced by pass  2 Test12= 1.31D-14 1.52D-09 XBig12= 3.80D-01 9.34D-02.
     63 vectors produced by pass  3 Test12= 1.31D-14 1.52D-09 XBig12= 1.49D-03 3.65D-03.
     63 vectors produced by pass  4 Test12= 1.31D-14 1.52D-09 XBig12= 3.02D-06 1.63D-04.
     45 vectors produced by pass  5 Test12= 1.31D-14 1.52D-09 XBig12= 5.09D-09 1.50D-05.
      6 vectors produced by pass  6 Test12= 1.31D-14 1.52D-09 XBig12= 6.08D-12 3.20D-07.
[...]
 0.00029197,-0.00010741,0.00009848,-0.00008798,-0.00000952,0.00000948,-
 0.00000806,-0.00001098,-0.00005820,0.00002559,0.00140317,0.00221566,-0
 .00359550,-0.00482540,0.02585309,0.08051945,-0.02333280,-0.30917763,0.
 00164389,-0.00101928,-0.00589000,-0.00185013,0.00078736,0.00083775,0.0
 0004969,0.00002169,0.00019578,0.00001097,0.00005611,-0.00006417,0.0000
 1913,-0.00004488,0.00000244,-0.00000837,-0.00000211,-0.00000503,0.0000
 3097,0.00002835,0.00002349,0.00788172,-0.00084223,-0.01407561,-0.08983
 243,0.02519619,0.32583288,-0.00660628,0.00238761,0.03153279,-0.0780053
 9,0.00491106,0.07314057,0.00756502,-0.00246792,-0.02370373,0.00155800,
 0.00112127,0.00126551,-0.00011930,-0.00004584,-0.00017730,0.00001090,0
 .00000055,0.00007989,-0.00000398,-0.00007469,-0.00000151,0.00002083,0.
 00003656,0.00002904,0.00103703,0.00065950,-0.00026278,-0.00471087,-0.0
 0133856,0.00113788,0.08185155,-0.00026371,0.00619747,0.00137254,0.0053
 5112,-0.04136496,-0.02009386,-0.00013992,0.00243335,-0.00252262,0.0013
 1005,0.00075935,0.00017119,-0.00017604,-0.00003632,-0.00012236,-0.0000
 4263,-0.00005363,-0.00002026,-0.00005567,0.00001496,0.00001884,0.00012
 729,0.00003639,0.00007219,0.00072686,-0.00752806,0.00091841,-0.0012302
 8,0.01147296,-0.00104347,-0.00465947,0.02688277,0.00034639,-0.00107193
 ,-0.00388961,0.07516113,-0.01996301,-0.30881468,0.00837211,-0.00109728
 ,-0.01897448,0.00021169,0.00001371,0.00172104,-0.00013470,-0.00024103,
 0.00030088,-0.00002393,0.00006619,-0.00003905,-0.00000733,-0.00005606,
 -0.00002160,-0.00004227,-0.00002969,0.00005579,0.00008172,0.00074249,0
 .00111841,0.00069872,-0.00065766,0.00139217,-0.08125662,0.02193592,0.3
 2795276,-0.00092518,-0.00044837,-0.00331541,-0.01687765,0.01773790,0.0
 0031756,-0.13115985,0.11801452,-0.00046531,0.00801926,-0.02502052,0.00
 106809,0.00473828,-0.00295036,0.00137216,0.00035488,-0.00017579,0.0001
 2358,0.00001676,0.00000472,0.00000133,-0.00010256,0.00011491,-0.000037
 45,-0.00038630,-0.00216216,0.00019902,-0.00006016,0.00136878,-0.000257
 34,0.00071905,-0.00056402,-0.00031270,0.14141158,-0.00068363,0.0001139
 4,0.00017568,-0.00067576,0.00600079,0.00006917,0.11195882,-0.19525231,
 -0.00247710,-0.00179349,-0.04042721,0.00691422,0.00521556,0.00112093,0
 .00315365,-0.00028989,0.00054591,-0.00008077,0.00017464,-0.00006184,-0
 .00013784,-0.00053004,-0.00019599,-0.00006668,0.00013891,-0.00067327,0
 .00007350,-0.00015564,0.00016446,0.00003371,0.00037099,0.00001388,0.00
 030247,-0.11774235,0.23137540,-0.00077926,-0.00030674,-0.00192120,-0.0
 1532370,0.01717952,0.00155537,-0.00023828,-0.00067796,-0.05468821,-0.0
 0301598,0.01560766,0.00209438,-0.00028325,-0.00113784,-0.00011825,-0.0
 0007987,-0.00006796,-0.00005313,-0.00003186,0.00007764,0.00005652,0.00
 007933,0.00001142,-0.00005131,-0.00043152,-0.00133941,0.00040989,-0.00
 021510,0.00035841,0.00010390,0.00080625,-0.00032478,0.00049197,0.00112
 688,-0.00556755,0.05142979,0.00130032,0.00004316,-0.00121781,0.0086978
 9,-0.00400004,-0.02319358,-0.08226574,0.01883700,0.07868725,-0.0143822
 2,-0.01002398,0.01834951,0.00292889,0.00118384,0.00508651,-0.00000641,
 -0.00003541,-0.00029797,0.00021091,0.00021782,-0.00016179,-0.00028440,
 -0.00025184,-0.00018458,0.00022472,-0.00002777,0.00014585,-0.00016430,
 0.00026533,0.00066035,-0.00326844,-0.00044923,-0.00327094,-0.00536089,
 0.00595213,0.01755705,0.09240056,-0.00022282,-0.00040399,0.00032606,0.
 00304406,0.00082625,-0.00198162,0.01943843,-0.05973124,-0.04658208,-0.
 02177167,-0.00391460,0.02972570,0.00256892,0.00133212,0.00416060,-0.00
 004348,0.00013529,0.00014764,0.00025563,0.00001250,-0.00014834,-0.0001
 9216,-0.00018880,-0.00021172,-0.00013314,-0.00008581,0.00007218,-0.000
 17987,0.00014878,0.00014019,-0.00095793,0.00124269,-0.00006328,0.00966
 232,-0.00328393,-0.02358580,-0.01184896,0.06405777,0.00174412,0.000734
 75,0.00120868,0.00741369,-0.00505706,-0.02116825,0.07669631,-0.0435331
 2,-0.25064647,0.00963671,0.00963680,-0.00817095,-0.00253867,-0.0002173
 6,0.00114600,-0.00016598,-0.00015436,0.00052515,-0.00014015,-0.0001799
 6,0.00005928,0.00029206,0.00023924,0.00006673,-0.00010203,0.00059145,0
 .00051083,-0.00107992,-0.00058467,0.00081772,-0.00285674,-0.00049471,-
 0.00149518,-0.00027124,-0.00113597,0.00058161,-0.09055125,0.03982279,0
 .27614912,0.00008770,-0.00009220,0.00002704,0.00011069,-0.00069568,0.0
 0001355,0.00265335,0.00605438,-0.00105529,-0.03146704,0.01502305,-0.01
 190355,-0.13416950,0.11442475,0.01456248,0.00905920,-0.01300582,-0.000
 05157,0.00085861,-0.00085393,-0.00011209,0.00148739,0.00075844,0.00013
 360,-0.00002005,0.00013887,-0.00003373,0.00001446,-0.00004237,-0.00000
 070,0.00003152,0.00010513,0.00003684,0.00040859,-0.00180351,0.00039462
 ,-0.00034208,-0.00032660,0.00033712,0.15673688,0.00007141,-0.00002733,
 -0.00001148,-0.00021490,0.00029691,-0.00012683,-0.00173949,0.00335980,
 -0.00003523,-0.00257352,0.00824957,0.00396743,0.11264831,-0.20578216,-
 0.01458608,0.01753614,-0.02386952,-0.00185770,0.00165333,0.00081564,-0
 .00009313,-0.00050518,0.00257109,-0.00115511,0.00002577,-0.00002587,0.
 00000789,-0.00000026,-0.00002489,0.00000756,0.00000641,-0.00002191,0.0
 0000788,0.00192850,0.00044129,-0.00004733,0.00015411,-0.00038043,-0.00
 020407,-0.12734490,0.21912308,0.00004550,-0.00004488,-0.00006323,0.000
 02608,-0.00003455,0.00003020,0.00143303,0.00226284,-0.00018417,-0.0239
 6516,0.01632682,-0.00186695,0.01555213,-0.01747762,-0.05335139,-0.0050
 0226,0.01087411,0.00021368,-0.00145292,0.00106542,0.00063172,-0.000072
 96,-0.00126881,0.00017037,-0.00001498,0.00002168,-0.00000357,0.0000041
 2,-0.00001629,0.00000393,-0.00001574,0.00003715,-0.00001012,0.00046735
 ,-0.00071745,0.00023879,-0.00019242,-0.00059279,-0.00013239,-0.0057532
 4,0.01199529,0.05588969,-0.00003147,0.00001175,0.00009968,-0.00009660,
 -0.00001530,-0.00010492,0.00406308,0.00252328,-0.00419183,-0.00065277,
 -0.00826765,-0.03688170,-0.07792662,0.01160354,0.07984892,-0.00627897,
 0.00270949,0.01560605,0.00066842,-0.00340074,0.00234385,0.00106126,0.0
 0066699,-0.00235427,-0.00000265,-0.00001357,0.00000382,-0.00004441,0.0
 0004091,0.00000321,-0.00002245,-0.00001714,0.00020035,-0.00063373,-0.0
 0024068,0.00040389,0.00020855,0.00070551,0.00165388,-0.00416251,0.0023
 6755,0.01820655,0.08396617,0.00002049,-0.00001806,0.00002129,-0.000156
 46,-0.00012533,0.00012673,0.00170773,0.00134440,-0.00239794,-0.0038361
 5,0.00164376,-0.00516706,0.01215572,-0.05826338,-0.02728013,-0.0124806
 2,0.00357514,0.02805355,-0.00014207,-0.00460277,0.00223089,0.00165165,
 0.00149092,-0.00248471,0.00000189,0.00002295,0.00000656,-0.00002759,0.
 00001257,0.00000127,0.00004687,-0.00001282,0.00012801,0.00016721,-0.00
 027407,-0.00013683,-0.00005154,0.00023648,0.00052804,0.01011904,-0.002
 45538,-0.02383744,-0.00830240,0.05618213,-0.00010161,-0.00002306,-0.00
 008878,-0.00039619,-0.00019661,0.00062741,0.00268633,0.00368606,0.0004
 6537,-0.01175644,-0.00588331,-0.02804375,0.07675771,-0.02702433,-0.256
 05649,0.00503300,-0.00122458,-0.00912254,-0.00133579,0.00133423,0.0001
 9862,0.00169157,0.00069678,0.00125521,-0.00004387,0.00004803,0.0000006
 1,-0.00003346,-0.00001012,0.00001230,0.00027957,0.00013037,0.00020745,
 0.00000968,-0.00059145,-0.00008849,-0.00146374,-0.00131304,0.00062641,
 0.00269205,-0.00020416,-0.00120562,-0.07395116,0.03043646,0.29056392,-
 0.00000973,-0.00000094,-0.00002261,-0.00002118,0.00009902,-0.00001034,
 0.00014241,-0.00010982,0.00007440,0.00154867,0.00145437,0.00052201,0.0
 0979513,-0.01392581,0.00048692,-0.11863623,0.12024039,0.00554619,-0.00
 956139,0.00762631,-0.00275003,-0.02529080,0.01763698,0.00163073,-0.000
 00672,-0.00001998,0.00000163,-0.00000086,0.00000516,0.00000287,-0.0000
 0995,-0.00000231,-0.00000924,-0.00016374,0.00014858,-0.00001049,0.0000
 1884,-0.00000115,0.00000320,-0.00161113,-0.00304992,0.00054194,0.00053
 656,0.00068730,-0.00015505,0.14320861,-0.00006938,0.00002404,-0.000076
 45,-0.00006788,0.00001619,0.00008648,-0.00036049,0.00000996,-0.0002399
 3,-0.00022675,0.00170297,-0.00016344,0.01599069,-0.01925032,-0.0011999
 2,0.12309593,-0.25723910,-0.00422350,-0.00210576,-0.00103570,0.0013535
 9,-0.00263141,0.01266407,0.00124230,-0.00002624,-0.00001449,0.00000283
 ,0.00000179,-0.00001750,0.00001041,-0.00000961,-0.00002519,-0.00002408
 ,0.00006613,0.00035078,-0.00001636,0.00004571,-0.00000984,0.00000080,-
 0.00279512,-0.00294440,0.00173634,-0.00026287,0.00089765,0.00026415,-0
 .13068270,0.26387941,0.00002124,0.00001408,0.00003791,0.00003386,0.000
 01827,-0.00005714,-0.00000625,-0.00014426,0.00011040,0.00038619,-0.000
 09770,0.00003381,-0.00472205,0.00963910,0.00207449,0.01150036,-0.00493
 656,-0.04603720,0.01168534,-0.02570392,-0.00034617,-0.01589561,0.01801
 048,0.00140223,0.00001316,-0.00000462,-0.00000065,0.00000050,-0.000000
 65,-0.00000648,0.00000355,-0.00002101,-0.00000271,-0.00004054,-0.00003
 235,-0.00003367,0.00003554,0.00004791,-0.00005057,0.00085100,0.0016843
 6,-0.00000944,-0.00056498,-0.00051474,0.00033589,-0.00597446,0.0008003
 5,0.04188551,-0.00003712,-0.00000320,-0.00004306,0.00001613,-0.0000312
 4,0.00005901,0.00005032,0.00025428,-0.00005081,-0.00007159,-0.00006300
 ,-0.00043592,-0.00004456,0.00267008,0.00502703,-0.00249009,-0.02660518
 ,0.01253900,-0.05961340,-0.04856067,0.04217343,0.00437809,0.01320293,-
 0.00937596,-0.00001876,0.00000040,-0.00000371,0.00001045,-0.00000346,-
 0.00000026,-0.00002235,-0.00000785,-0.00002820,0.00000397,-0.00002098,
 0.00001899,0.00003625,-0.00002317,-0.00002516,0.00009794,0.00012586,0.
 00005794,-0.00123441,-0.00144716,0.00034421,0.00042995,0.00039496,-0.0
 0153694,0.05471679,-0.00001769,0.00000103,-0.00001640,0.00000463,0.000
 00436,0.00003059,0.00010922,0.00006285,-0.00004122,-0.00019942,-0.0000
 2997,0.00000673,0.00020843,-0.00044750,-0.00006802,0.00242116,0.001238
 98,-0.00390806,-0.04978053,-0.23990653,0.12570280,0.00283161,0.0123173
 4,-0.00333985,-0.00000949,-0.00000335,-0.00000170,0.00000298,-0.000001
 65,0.00000030,0.00000230,-0.00000601,-0.00000356,-0.00000089,0.0000183
 6,-0.00000524,-0.00001186,0.00000197,0.00000775,-0.00005273,0.00044139
 ,-0.00014500,-0.00016095,0.00022706,-0.00008092,0.00034792,0.00068168,
 0.00054712,0.05152436,0.24074308,0.00001516,0.00000653,0.00001970,0.00
 001175,0.00003649,-0.00004124,-0.00004966,-0.00014779,0.00007896,0.000
 38695,0.00041541,0.00018702,-0.00074578,-0.00087237,0.00054935,-0.0015
 4065,0.00006234,-0.00732062,0.03621602,0.12143852,-0.12760612,0.010513
 91,0.01854983,-0.02762806,0.00000873,-0.00000588,0.00000275,-0.0000032
 8,0.00000080,-0.00000085,0.00000320,-0.00000560,0.00000645,0.00000523,
 0.00003721,-0.00001216,0.00000335,0.00001601,-0.00001360,-0.00006784,0
 .00021144,-0.00007319,-0.00019290,0.00007027,0.00033518,0.00046180,0.0
 0043125,0.00014997,-0.04346566,-0.13312116,0.15227743,0.00000916,-0.00
 000085,-0.00001452,-0.00002559,-0.00001084,0.00004777,-0.00018089,-0.0
 0009672,0.00000070,0.00012866,-0.00034033,-0.00025532,0.00086124,0.001
 25082,-0.00183193,-0.00781806,0.02869729,0.00621877,-0.07340372,0.0817
 6530,0.03357652,0.00594564,-0.01587408,-0.00506228,0.00000388,0.000004
 01,0.00000232,0.00000714,0.00000148,-0.00000880,-0.00002389,-0.0000090
 4,-0.00002122,-0.00000655,-0.00002959,0.00002651,0.00003860,0.00001970
 ,-0.00003414,0.00021095,-0.00108299,0.00015198,0.00056858,-0.00013733,
 -0.00023017,-0.00038489,-0.00034302,0.00422239,0.00370976,-0.00723299,
 -0.00168949,0.07027795,0.00000265,0.00000814,0.00001700,0.00000946,0.0
 0000650,-0.00003481,-0.00005006,-0.00004424,0.00003699,0.00025206,0.00
 016283,0.00024349,-0.00096426,0.00048536,-0.00025703,-0.00313290,0.003
 24570,0.00093963,0.08110561,-0.28265198,-0.06919478,0.00093268,0.00252
 699,-0.00681431,0.00000418,-0.00000262,0.00000015,-0.00000445,-0.00000
 269,0.00000291,0.00001212,-0.00000077,0.00001173,-0.00000188,0.0000143
 5,-0.00001732,-0.00001001,-0.00000083,0.00001026,0.00038217,0.00025012
 ,-0.00017046,0.00000516,0.00009741,0.00000605,-0.00055785,0.00030163,0
 .00064831,0.00854982,-0.01534908,-0.00724035,-0.08658791,0.29091605,0.
 00000065,0.00000390,0.00000004,0.00001308,0.00003735,-0.00000170,0.000
 10735,-0.00005320,0.00003777,0.00003301,0.00058361,-0.00017105,0.00084
 271,-0.00173999,0.00074483,-0.00094783,-0.00341481,-0.00723871,0.02726
 906,-0.06559847,-0.06786136,0.01357676,-0.02676552,-0.02027225,0.00000
 115,-0.00000723,0.00000112,0.00000088,0.00000116,-0.00000091,-0.000002
 80,-0.00000358,-0.00000017,0.00000640,0.00003557,0.00000695,-0.0000028
 2,0.00001023,-0.00000374,-0.00006750,0.00044438,-0.00028131,-0.0001822
 5,0.00018479,0.00003766,-0.00045075,0.00001779,0.00042169,-0.00528694,
 0.01444338,0.00901747,-0.03510110,0.08175185,0.08552720,0.00005701,0.0
 0007090,0.00002698,-0.00004053,0.00007583,-0.00009832,-0.00028054,-0.0
 0066071,-0.00006404,0.00060603,0.00065055,0.00077315,-0.00034026,-0.00
 029529,-0.00133061,-0.00166283,-0.00161459,-0.00155837,0.00042139,0.00
 177604,-0.00014797,-0.00226268,0.00041397,0.00383842,0.00004014,-0.000
 01544,0.00002865,-0.00002756,-0.00003355,0.00001281,0.00001761,-0.0000
 3811,0.00004939,-0.00000859,0.00010680,-0.00001321,-0.00003658,0.00004
 115,0.00003215,-0.00000787,0.00019639,0.00013624,-0.00046843,-0.000273
 46,0.00047127,-0.00044692,0.00011325,-0.00057951,0.00038070,-0.0001991
 2,0.00076570,0.00030215,0.00028638,0.00091505,1.31161587,0.00004896,0.
 00001158,0.00004785,-0.00000886,0.00004297,-0.00007294,-0.00027279,-0.
 00033282,0.00013828,0.00072474,0.00046467,0.00012703,-0.00038063,-0.00
 035387,0.00001209,-0.00126981,0.00028712,-0.00011967,0.00028742,0.0002
 5241,-0.00105148,0.00104202,-0.00088096,0.00153967,0.00002721,-0.00000
 140,0.00000959,-0.00000832,0.00000267,-0.00000850,-0.00000034,-0.00001
 479,0.00000952,0.00002233,0.00003749,-0.00002009,0.00002383,0.00003787
 ,-0.00003769,0.00002230,-0.00009280,-0.00002280,0.00000547,0.00005705,
 0.00000004,0.00035965,-0.00001660,0.00005543,0.00002659,-0.00001091,0.
 00038535,0.00004244,0.00005358,0.00025423,0.03997033,0.14340626,0.0000
 2395,0.00000811,0.00006081,0.00004438,0.00007930,-0.00005612,-0.000280
 30,-0.00027772,0.00038844,0.00078865,0.00070610,-0.00067839,-0.0003377
 2,-0.00066653,0.00161203,-0.00132347,0.00129786,0.00031421,-0.00042154
 ,-0.00092357,-0.00222195,0.00393716,0.00086713,0.00001530,0.00001559,-
 0.00001166,-0.00000640,0.00001159,0.00001112,-0.00002361,-0.00001773,-
 0.00002162,-0.00003134,0.00002188,0.00004365,-0.00001123,0.00010410,0.
 00002930,-0.00011473,0.00003471,-0.00004954,-0.00002410,0.00055096,0.0
 0027371,-0.00045952,0.00050118,-0.00018286,0.00030742,-0.00030860,0.00
 000022,-0.00036613,0.00004550,0.00012326,0.00000403,-0.84692251,-0.033
 76512,0.74880614,-0.00002343,-0.00003380,-0.00000682,0.00002259,-0.000
 02951,0.00004022,0.00010503,0.00028481,0.00006767,-0.00019413,-0.00024
 019,-0.00043217,0.00011791,0.00007136,0.00081057,0.00046450,0.00093008
 ,0.00080940,-0.00009287,-0.00088389,-0.00024721,0.00100837,-0.00076239
 ,-0.00232280,-0.00001668,0.00000672,-0.00001400,0.00001392,0.00001782,
 -0.00000823,-0.00000993,0.00001658,-0.00002566,0.00000711,-0.00004809,
 0.00000368,0.00002679,-0.00001294,-0.00002569,0.00000919,-0.00011070,-
 0.00008148,0.00026766,0.00017019,-0.00028273,0.00028227,-0.00007852,0.
 00030746,-0.00020475,0.00010220,-0.00034385,-0.00009802,-0.00010823,-0
 .00039621,-0.64327012,-0.01378834,0.42483871,0.68431710,-0.00002511,-0
 .00000333,-0.00002142,0.00001094,-0.00001362,0.00003063,0.00012568,0.0
 0015246,-0.00004130,-0.00031896,-0.00016954,-0.00015784,0.00013877,0.0
 0012516,0.00025112,0.00054867,-0.00012744,0.00021676,-0.00010938,-0.00
 014135,0.00024704,-0.00028157,-0.00020740,-0.00215041,-0.00001287,-0.0
 0000098,-0.00000533,0.00000536,-0.00000239,0.00000423,-0.00000169,0.00
 000548,-0.00000689,-0.00001117,-0.00001402,0.00001021,-0.00000120,-0.0
 0001884,0.00001267,-0.00000807,0.00004886,0.00000443,0.00007069,-0.000
 01772,-0.00006751,-0.00012128,0.00001698,-0.00000298,-0.00000927,0.000
 00897,-0.00015449,-0.00006140,-0.00003564,-0.00013471,-0.01418178,-0.0
 7103704,0.01222763,0.01761619,0.03665766,-0.00000987,-0.00000619,-0.00
 002827,-0.00001993,-0.00003582,0.00002394,0.00014957,0.00014219,-0.000
 17853,-0.00033531,-0.00029891,0.00028110,0.00021565,0.00027153,-0.0005
 7717,0.00065119,-0.00024347,-0.00005419,0.00010037,-0.00009394,0.00083
 920,-0.00126746,-0.00110735,-0.00215192,-0.00000691,0.00000532,0.00000
 297,-0.00000542,-0.00000382,0.00001117,0.00000809,0.00001093,0.0000152
 9,-0.00000988,-0.00002267,0.00000430,-0.00004793,-0.00001091,0.0000545
 7,-0.00002198,0.00000480,0.00000304,-0.00023357,-0.00009907,0.00017392
 ,-0.00016873,0.00008280,-0.00003370,0.00014313,0.00000152,0.00015690,-
 0.00006920,-0.00004746,-0.00009400,0.42472784,0.01194908,-0.38361567,-
 0.47873774,-0.01176282,0.39108706,-0.00002907,-0.00003573,-0.00001228,
 0.00001946,-0.00003933,0.00004946,0.00012378,0.00032327,0.00003488,-0.
 00031822,-0.00035215,-0.00036389,0.00010019,0.00020807,0.00055660,0.00
 069556,0.00018879,0.00055111,-0.00021349,-0.00055201,0.00018921,-0.000
 62567,-0.00058311,-0.00171623,-0.00001998,0.00000801,-0.00001469,0.000
 01404,0.00001633,-0.00000666,-0.00000869,0.00001841,-0.00002553,0.0000
 0571,-0.00005277,0.00000531,0.00001874,-0.00002184,-0.00001828,0.00001
 374,-0.00009191,-0.00007172,0.00021472,0.00012669,-0.00021520,0.000181
 10,-0.00004872,0.00025975,-0.00009333,0.00011086,-0.00029270,-0.000122
 09,-0.00012476,-0.00032790,-0.66458802,-0.02687419,0.41869352,-0.04273
 252,-0.00337257,0.05493807,0.70736405,-0.00001865,-0.00000521,-0.00001
 810,0.00000206,-0.00001637,0.00002919,0.00010180,0.00012253,-0.0000573
 7,-0.00028479,-0.00019389,-0.00001891,0.00014779,0.00014980,-0.0001042
 2,0.00035022,-0.00021294,-0.00001127,-0.00002700,-0.00012214,0.0005037
 4,-0.00176547,-0.00010634,-0.00089351,-0.00001058,0.00000061,-0.000003
 85,0.00000321,-0.00000086,0.00000299,0.00000079,0.00000517,-0.00000345
 ,-0.00000981,-0.00001495,0.00000637,-0.00001107,-0.00001344,0.00001441
 ,-0.00000720,0.00002694,0.00000400,-0.00002904,-0.00001797,0.00001690,
 -0.00013390,0.00000775,-0.00000662,0.00002590,0.00000793,-0.00011383,0
 .00002602,0.00001919,-0.00005073,-0.02638955,-0.07191247,0.02023124,-0
 .00311937,0.03477377,0.00126425,0.03114866,0.03750288,-0.00000552,0.00
 000243,-0.00002296,-0.00002154,-0.00002651,0.00001505,0.00008977,0.000
 05777,-0.00016477,-0.00028085,-0.00023576,0.00033892,0.00008833,0.0002
 6032,-0.00076340,0.00026653,-0.00084655,-0.00020015,0.00030173,0.00069
 097,0.00080041,-0.00287776,-0.00113673,-0.00020210,-0.00000321,0.00000
 392,0.00000483,-0.00000702,-0.00000710,0.00001077,0.00000863,0.0000063
 2,0.00001671,-0.00000930,-0.00000900,0.00000416,-0.00004467,-0.0000090
 3,0.00004976,-0.00001552,0.00003963,0.00002405,-0.00026359,-0.00014363
 ,0.00022525,-0.00022118,0.00009746,-0.00018158,0.00019850,-0.00000929,
 0.00028080,0.00002569,-0.00001509,0.00012645,0.41893689,0.02057013,-0.
 36389919,0.05604691,0.00150097,-0.00592003,-0.47221280,-0.02079123,0.3
 6945701\\0.00000023,-0.00000082,0.00000066,0.00000014,-0.00000050,0.00
 000040,0.00000032,-0.00000039,0.00000019,0.,-0.00000019,0.00000019,0.0
 0000014,-0.00000004,-0.00000005,-0.00000023,0.00000018,-0.00000004,-0.
 00000040,0.00000055,-0.00000029,-0.00000018,0.00000046,-0.00000034,0.0
 0000004,-0.00000036,0.00000033,0.00000017,-0.00000042,0.00000030,-0.00
 000002,-0.00000012,0.00000013,0.00000021,-0.00000011,-0.00000003,0.000
 00020,-0.00000025,0.00000012,0.00000013,0.00000005,-0.00000013,0.00000
 013,-0.00000010,0.00000001,-0.00000017,0.00000002,0.00000009,-0.000000
 29,0.00000028,-0.00000009,-0.00000011,0.00000027,-0.00000020,-0.000000
 09,0.00000044,-0.00000038,0.00000006,0.00000017,-0.00000021,-0.0000002
 8,0.00000085,-0.00000066\\\@


 Everywhere is walking distance if you have the time.
                                    -- Steven Wright
 Job cpu time:       0 days  1 hours  4 minutes 24.6 seconds.
 Elapsed time:       0 days  0 hours  1 minutes  8.1 seconds.
 File lengths (MBytes):  RWF=    202 Int=      0 D2E=      0 Chk=      6 Scr=      2
 Normal termination of Gaussian 16 at Tue Aug  8 13:27:06 2023.
