 Entering Gaussian System, Link 0=g16
 Input=2_opt_freq_from_IRC.com
 Output=2_opt_freq_from_IRC.log
 Initial command:
 /apps/commercial/G16/g16.linda/l1.exe "/scratch/x2608a02/Gau-29804.inp" -scrdir="/scratch/x2608a02/"
 Default linda workers: node5948,node5949
 Default is to use  64 SMP processors on each worker.
 Entering Link 1 = /apps/commercial/G16/g16.linda/l1.exe PID=     29805.
  
 Copyright (c) 1988,1990,1992,1993,1995,1998,2003,2009,2016,
            Gaussian, Inc.  All Rights Reserved.
  
 This is part of the Gaussian(R) 16 program.  It is based on
 the Gaussian(R) 09 system (copyright 2009, Gaussian, Inc.),
 the Gaussian(R) 03 system (copyright 2003, Gaussian, Inc.),
 the Gaussian(R) 98 system (copyright 1998, Gaussian, Inc.),
 the Gaussian(R) 94 system (copyright 1995, Gaussian, Inc.),
 the Gaussian 92(TM) system (copyright 1992, Gaussian, Inc.),
 the Gaussian 90(TM) system (copyright 1990, Gaussian, Inc.),
 the Gaussian 88(TM) system (copyright 1988, Gaussian, Inc.),
 the Gaussian 86(TM) system (copyright 1986, Carnegie Mellon
 University), and the Gaussian 82(TM) system (copyright 1983,
 Carnegie Mellon University). Gaussian is a federally registered
 trademark of Gaussian, Inc.
  
 This software contains proprietary and confidential information,
 including trade secrets, belonging to Gaussian, Inc.
  
 This software is provided under written license and may be
 used, copied, transmitted, or stored only in accord with that
 written license.
  
 The following legend is applicable only to US Government
 contracts under FAR:
  
                    RESTRICTED RIGHTS LEGEND
  
 Use, reproduction and disclosure by the US Government is
 subject to restrictions as set forth in subparagraphs (a)
 and (c) of the Commercial Computer Software - Restricted
 Rights clause in FAR 52.227-19.
  
 Gaussian, Inc.
 340 Quinnipiac St., Bldg. 40, Wallingford CT 06492
  
  
 ---------------------------------------------------------------
 Warning -- This program may not be used in any manner that
 competes with the business of Gaussian, Inc. or will provide
 assistance to any competitor of Gaussian, Inc.  The licensee
 of this program is prohibited from giving any competitor of
 Gaussian, Inc. access to this program.  By using this program,
 the user acknowledges that Gaussian, Inc. is engaged in the
 business of creating and licensing software in the field of
 computational chemistry and represents and warrants to the
 licensee that it is not a competitor of Gaussian, Inc. and that
 it will not use this program in any manner prohibited above.
 ---------------------------------------------------------------
  

 Cite this work as:
 Gaussian 16, Revision A.03,
 M. J. Frisch, G. W. Trucks, H. B. Schlegel, G. E. Scuseria, 
 M. A. Robb, J. R. Cheeseman, G. Scalmani, V. Barone, 
 G. A. Petersson, H. Nakatsuji, X. Li, M. Caricato, A. V. Marenich, 
 J. Bloino, B. G. Janesko, R. Gomperts, B. Mennucci, H. P. Hratchian, 
 J. V. Ortiz, A. F. Izmaylov, J. L. Sonnenberg, D. Williams-Young, 
 F. Ding, F. Lipparini, F. Egidi, J. Goings, B. Peng, A. Petrone, 
 T. Henderson, D. Ranasinghe, V. G. Zakrzewski, J. Gao, N. Rega, 
 G. Zheng, W. Liang, M. Hada, M. Ehara, K. Toyota, R. Fukuda, 
 J. Hasegawa, M. Ishida, T. Nakajima, Y. Honda, O. Kitao, H. Nakai, 
 T. Vreven, K. Throssell, J. A. Montgomery, Jr., J. E. Peralta, 
 F. Ogliaro, M. J. Bearpark, J. J. Heyd, E. N. Brothers, K. N. Kudin, 
 V. N. Staroverov, T. A. Keith, R. Kobayashi, J. Normand, 
 K. Raghavachari, A. P. Rendell, J. C. Burant, S. S. Iyengar, 
 J. Tomasi, M. Cossi, J. M. Millam, M. Klene, C. Adamo, R. Cammi, 
 J. W. Ochterski, R. L. Martin, K. Morokuma, O. Farkas, 
 J. B. Foresman, and D. J. Fox, Gaussian, Inc., Wallingford CT, 2016.
 
 ******************************************
 Gaussian 16:  ES64L-G16RevA.03 25-Dec-2016
                25-Jun-2023 
 ******************************************
 %nprocshared=64
 Will use up to   64 processors via shared memory.
 %mem=64GB
 %chk=2_opt_freq_from_IRC.chk
 SetLPE:    new flags="-opt 'Tsnet.Node.lindarsharg: ssh'  -nodelist 'node5948 node5949' -env GAUSS_MDEF=8589934592 -env GAUSS_EXEDIR="/apps/commercial/G16/g16.linda""
 Will use up to    2 processors via Linda.
 ----------------------------------------------------------------------
 # opt=(calcall,tight,cartesian) freq b3lyp/gen nosymm scf=(qc,maxcycle
 =1024) pseudo=read
 ----------------------------------------------------------------------
 1/7=10,10=4,18=10,26=3,38=1/1,3;
 2/12=2,15=1,17=6,18=5,29=2,40=1/2;
 3/5=7,11=2,16=1,17=8,25=1,30=1,71=2,74=-5,140=1/1,2,3;
 4//1;
 5/5=2,7=1024,8=3,38=5/8;
 8/6=4,10=90,11=11/1;
 11/6=1,8=1,9=11,15=111,16=1,31=1/1,2,10;
 10/6=1,31=1/2;
 6/7=2,8=2,9=2,10=2,18=1,28=1/1;
 7/7=1,10=1,25=1,30=1/1,2,3,16;
 1/7=10,10=4,18=10,26=3/3(3);
 2/15=1,29=1/2;
 7/7=1,8=1,9=1,25=1,30=1,44=-1/16;
 99/12=1/99;
 2/15=1,29=1/2;
 3/5=7,6=1,11=2,16=1,17=8,25=1,30=1,71=2,74=-5,82=7,140=1/1,2,3;
 4/5=5,16=3,69=1/1;
 5/5=2,7=1024,8=3,38=5/8;
 8/6=4,10=90,11=11/1;
 11/6=1,8=1,9=11,15=111,16=1,31=1/1,2,10;
 10/6=1,31=1/2;
 7/7=1,10=1,25=1,30=1/1,2,3,16;
 1/7=10,10=4,18=10,26=3/3(-8);
 2/15=1,29=1/2;
 6/7=2,8=2,9=2,10=2,18=1,19=2,28=1/1;
 7/7=1,8=1,9=1,25=1,30=1,44=-1/16;
 99/12=1/99;
 -------------------
 2_opt_freq_from_IRC
 -------------------
 Symbolic Z-matrix:
 Charge =  0 Multiplicity = 1
 Zn                   -1   -4.69449  -2.52891   2.32632 
 O                    -1   -4.60002  -0.93173   3.63136 
 O                    0    -2.34257  -0.86666   3.53679 
 O                    -1   -3.7714   -1.27973   0.82823 
 O                    0    -1.52556  -1.10805   0.68995 
 C                    -1   -3.46123  -0.46882   3.94274 
 C                    -1   -2.70354  -0.84264   0.32124 
 Zn                   0    -1.3876   -2.4292    2.2237 
 O                    0    -2.28197  -3.99106   0.97818 
 O                    -1   -4.53935  -4.11556   1.01425 
 O                    0    -1.33271  -3.67646   3.80289 
 O                    -1   -3.59321  -3.69443   3.77059 
 C                    -1   -3.3849   -4.48478   0.64137 
 C                    -1   -2.46758  -4.0416    4.21874 
 H                    -1   -3.45541   0.38383   4.64232 
 H                    -1   -2.79074  -0.14615  -0.52756 
 H                    -1   -3.34703  -5.33554  -0.0595 
 H                    -1   -2.45197  -4.74051   5.06989 
 C                    -1   -7.53384  -1.75151   3.14439 
 C                    -1   -8.92519  -1.77977   3.20973 
 C                    -1   -9.61549  -2.73787   2.46521 
 C                    -1   -8.88946  -3.63544   1.68034 
 C                    -1   -7.49932  -3.5449    1.66652 
 N                    -1   -6.83449  -2.61908   2.38606 
 H                    -1   -10.70019  -2.78423   2.49611 
 H                    -1   -6.94295  -1.03037   3.70008 
 H                    -1   -9.44925  -1.06304   3.8329 
 H                    -1   -9.38507  -4.39575   1.08621 
 H                    -1   -6.88162  -4.21449   1.07654 
 C                    0     0.00635   1.34482   6.82125 
 C                    0     0.96538   1.16474   5.90887 
 C                    0     0.73134   1.10136   4.42764 
 O                    0     1.34705  -0.07225   3.91714 
 C                    0     1.36046  -0.11679   2.48914 
 C                    0     1.77167  -1.49418   2.06595 
 C                    0     1.44316  -2.00186   0.74145 
 O                    0     0.72094  -2.51344   1.93096 
 H                    0     0.2335    1.41095   7.88191 
 H                    0    -1.04076   1.42353   6.53691 
 H                    0     2.00502   1.06306   6.22003 
 H                    0     1.17812   1.99124   3.94745 
 H                    0    -0.34565   1.09586   4.20086 
 H                    0     2.08856   0.59658   2.07343 
 H                    0     0.37001   0.12257   2.07855 
 H                    0     2.64883  -1.89025   2.5735 
 H                    0     2.08905  -2.73961   0.27894 
 H                    0     0.83778  -1.39691   0.0779 
 N                    -1    9.32365   7.87859  -9.41833 
 C                    -1    8.77519   8.66629  -10.62748 
 C                    -1    7.27043   8.62289  -10.87255 
 H                    -1    9.31304   8.2707   -11.50121 
 H                    -1    9.07822   9.7019   -10.45098 
 H                    -1    7.10358   9.15702  -11.81342 
 H                    -1    6.88374   7.6137   -11.01372 
 H                    -1    6.68334   9.12889  -10.10025 
 C                    -1    8.3918    8.04929  -8.23166 
 C                    -1    8.83977   7.40494  -6.92222 
 H                    -1    7.42815   7.64083  -8.53166 
 H                    -1    8.26601   9.12853  -8.10365 
 H                    -1    8.06075   7.5952   -6.17719 
 H                    -1    8.95072   6.32106  -7.00604 
 H                    -1    9.77023   7.82471  -6.53281 
 C                    -1    10.68837   8.48329  -9.05489 
 C                    -1    11.65487   8.71425  -10.21454 
 H                    -1    11.12876   7.80114  -8.32636 
 H                    -1    10.46651   9.42567  -8.54406 
 H                    -1    12.64171   8.90747  -9.78094 
 H                    -1    11.73079   7.86425  -10.89914 
 H                    -1    11.37934   9.58313  -10.81558 
 C                    -1    9.55968   6.39601  -9.75557 
 C                    -1    8.33127   5.54396  -10.04222 
 H                    -1    10.11973   5.99722  -8.90738 
 H                    -1    10.18644   6.39166  -10.65626 
 H                    -1    8.68431   4.51032  -10.11399 
 H                    -1    7.56308   5.57545  -9.26272 
 H                    -1    7.89699   5.78487  -11.01342 
 Br                   0     3.44279   0.15358  -0.90273 
 

 GradGradGradGradGradGradGradGradGradGradGradGradGradGradGradGradGradGrad
 Berny optimization.
 Initialization pass.
 No Z-matrix variables, so optimization will use Cartesian coordinates.
 Trust Radius=3.00D-01 FncErr=1.00D-07 GrdErr=1.00D-06 EigMax=2.50D+02 EigMin=1.00D-04
 Number of steps in this run=    241 maximum allowed number of steps=    462.
 GradGradGradGradGradGradGradGradGradGradGradGradGradGradGradGradGradGrad

 Symmetry turned off by external request.
 Stoichiometry    C23H39BrN2O10Zn2
 Framework group  C1[X(C23H39BrN2O10Zn2)]
 Deg. of freedom   225
 Full point group                 C1      NOp   1
                          Input orientation:                          
 ---------------------------------------------------------------------
 Center     Atomic      Atomic             Coordinates (Angstroms)
 Number     Number       Type             X           Y           Z
 ---------------------------------------------------------------------
      1         30           0       -4.694489   -2.528905    2.326317
      2          8           0       -4.600022   -0.931734    3.631360
      3          8           0       -2.342565   -0.866660    3.536793
      4          8           0       -3.771400   -1.279734    0.828231
      5          8           0       -1.525564   -1.108045    0.689951
      6          6           0       -3.461226   -0.468815    3.942742
      7          6           0       -2.703539   -0.842639    0.321243
      8         30           0       -1.387596   -2.429198    2.223695
      9          8           0       -2.281970   -3.991057    0.978175
     10          8           0       -4.539354   -4.115561    1.014246
     11          8           0       -1.332709   -3.676461    3.802887
     12          8           0       -3.593209   -3.694425    3.770586
     13          6           0       -3.384903   -4.484776    0.641370
     14          6           0       -2.467582   -4.041605    4.218740
     15          1           0       -3.455408    0.383834    4.642316
     16          1           0       -2.790739   -0.146153   -0.527563
     17          1           0       -3.347035   -5.335536   -0.059501
     18          1           0       -2.451967   -4.740511    5.069891
     19          6           0       -7.533844   -1.751514    3.144391
     20          6           0       -8.925190   -1.779770    3.209727
     21          6           0       -9.615492   -2.737870    2.465207
     22          6           0       -8.889458   -3.635442    1.680343
     23          6           0       -7.499316   -3.544901    1.666524
     24          7           0       -6.834486   -2.619084    2.386057
     25          1           0      -10.700185   -2.784227    2.496111
     26          1           0       -6.942948   -1.030371    3.700081
     27          1           0       -9.449248   -1.063042    3.832903
     28          1           0       -9.385065   -4.395750    1.086214
     29          1           0       -6.881618   -4.214494    1.076539
     30          6           0        0.006345    1.344819    6.821245
     31          6           0        0.965381    1.164740    5.908869
     32          6           0        0.731342    1.101362    4.427635
     33          8           0        1.347050   -0.072248    3.917144
     34          6           0        1.360458   -0.116785    2.489138
     35          6           0        1.771665   -1.494178    2.065950
     36          6           0        1.443156   -2.001863    0.741449
     37          8           0        0.720944   -2.513437    1.930960
     38          1           0        0.233502    1.410948    7.881913
     39          1           0       -1.040759    1.423526    6.536912
     40          1           0        2.005024    1.063060    6.220026
     41          1           0        1.178118    1.991243    3.947445
     42          1           0       -0.345650    1.095858    4.200863
     43          1           0        2.088564    0.596580    2.073429
     44          1           0        0.370008    0.122573    2.078547
     45          1           0        2.648825   -1.890248    2.573495
     46          1           0        2.089053   -2.739612    0.278941
     47          1           0        0.837783   -1.396906    0.077896
     48          7           0        9.323654    7.878593   -9.418327
     49          6           0        8.775192    8.666291  -10.627481
     50          6           0        7.270430    8.622886  -10.872553
     51          1           0        9.313044    8.270702  -11.501210
     52          1           0        9.078220    9.701899  -10.450984
     53          1           0        7.103577    9.157016  -11.813418
     54          1           0        6.883739    7.613699  -11.013723
     55          1           0        6.683343    9.128889  -10.100249
     56          6           0        8.391804    8.049291   -8.231660
     57          6           0        8.839774    7.404936   -6.922216
     58          1           0        7.428152    7.640829   -8.531655
     59          1           0        8.266006    9.128533   -8.103645
     60          1           0        8.060745    7.595195   -6.177194
     61          1           0        8.950718    6.321056   -7.006041
     62          1           0        9.770233    7.824714   -6.532814
     63          6           0       10.688373    8.483285   -9.054888
     64          6           0       11.654868    8.714255  -10.214541
     65          1           0       11.128756    7.801136   -8.326361
     66          1           0       10.466507    9.425674   -8.544057
     67          1           0       12.641714    8.907473   -9.780939
     68          1           0       11.730791    7.864246  -10.899138
     69          1           0       11.379340    9.583125  -10.815579
     70          6           0        9.559677    6.396005   -9.755568
     71          6           0        8.331274    5.543955  -10.042216
     72          1           0       10.119726    5.997221   -8.907378
     73          1           0       10.186439    6.391655  -10.656259
     74          1           0        8.684305    4.510323  -10.113993
     75          1           0        7.563082    5.575454   -9.262716
     76          1           0        7.896991    5.784870  -11.013421
     77         35           0        3.442794    0.153581   -0.902732
 ---------------------------------------------------------------------
 Rotational constants (GHZ):           0.0993630           0.0112374           0.0107359
 General basis read from cards:  (5D, 7F)
 ======================================================================================================
                                       Pseudopotential Parameters
 ======================================================================================================
  Center     Atomic      Valence      Angular      Power
  Number     Number     Electrons     Momentum     of R      Exponent        Coefficient   SO-Coeffient
 ======================================================================================================
    1         30           12
                                      F and up 
                                                     1      386.7379660      -18.00000000    0.00000000
                                                     2       72.8587359     -124.35274030    0.00000000
                                                     2       15.9066170      -30.66018220    0.00000000
                                                     2        4.3502340      -10.63589890    0.00000000
                                                     2        1.2842199       -0.76836230    0.00000000
                                      S - F
                                                     0       19.0867858        3.00000000    0.00000000
                                                     1        5.0231080       22.52342250    0.00000000
                                                     2        1.2701744       48.44659420    0.00000000
                                                     2        1.0671287      -44.55601190    0.00000000
                                                     2        0.9264190       12.99839580    0.00000000
                                      P - F
                                                     0       43.4927750        5.00000000    0.00000000
                                                     1       20.8692669       20.74355890    0.00000000
                                                     2       21.7118378       90.30271580    0.00000000
                                                     2        6.3616915       74.66103160    0.00000000
                                                     2        1.2291195        9.88944240    0.00000000
                                      D - F
                                                     2       13.5851800       -4.84903590    0.00000000
                                                     2        9.8373050        3.69133790    0.00000000
                                                     2        0.8373113       -0.50373190    0.00000000
    2          8
                                   No pseudopotential on this center.
    3          8
                                   No pseudopotential on this center.
    4          8
                                   No pseudopotential on this center.
    5          8
                                   No pseudopotential on this center.
    6          6
                                   No pseudopotential on this center.
    7          6
                                   No pseudopotential on this center.
    8         30           12
                                      F and up 
                                                     1      386.7379660      -18.00000000    0.00000000
                                                     2       72.8587359     -124.35274030    0.00000000
                                                     2       15.9066170      -30.66018220    0.00000000
                                                     2        4.3502340      -10.63589890    0.00000000
                                                     2        1.2842199       -0.76836230    0.00000000
                                      S - F
                                                     0       19.0867858        3.00000000    0.00000000
                                                     1        5.0231080       22.52342250    0.00000000
                                                     2        1.2701744       48.44659420    0.00000000
                                                     2        1.0671287      -44.55601190    0.00000000
                                                     2        0.9264190       12.99839580    0.00000000
                                      P - F
                                                     0       43.4927750        5.00000000    0.00000000
                                                     1       20.8692669       20.74355890    0.00000000
                                                     2       21.7118378       90.30271580    0.00000000
                                                     2        6.3616915       74.66103160    0.00000000
                                                     2        1.2291195        9.88944240    0.00000000
                                      D - F
                                                     2       13.5851800       -4.84903590    0.00000000
                                                     2        9.8373050        3.69133790    0.00000000
                                                     2        0.8373113       -0.50373190    0.00000000
    9          8
                                   No pseudopotential on this center.
   10          8
                                   No pseudopotential on this center.
   11          8
                                   No pseudopotential on this center.
   12          8
                                   No pseudopotential on this center.
   13          6
                                   No pseudopotential on this center.
   14          6
                                   No pseudopotential on this center.
   15          1
                                   No pseudopotential on this center.
   16          1
                                   No pseudopotential on this center.
   17          1
                                   No pseudopotential on this center.
   18          1
                                   No pseudopotential on this center.
   19          6
                                   No pseudopotential on this center.
   20          6
                                   No pseudopotential on this center.
   21          6
                                   No pseudopotential on this center.
   22          6
                                   No pseudopotential on this center.
   23          6
                                   No pseudopotential on this center.
   24          7
                                   No pseudopotential on this center.
   25          1
                                   No pseudopotential on this center.
   26          1
                                   No pseudopotential on this center.
   27          1
                                   No pseudopotential on this center.
   28          1
                                   No pseudopotential on this center.
   29          1
                                   No pseudopotential on this center.
   30          6
                                   No pseudopotential on this center.
   31          6
                                   No pseudopotential on this center.
   32          6
                                   No pseudopotential on this center.
   33          8
                                   No pseudopotential on this center.
   34          6
                                   No pseudopotential on this center.
   35          6
                                   No pseudopotential on this center.
   36          6
                                   No pseudopotential on this center.
   37          8
                                   No pseudopotential on this center.
   38          1
                                   No pseudopotential on this center.
   39          1
                                   No pseudopotential on this center.
   40          1
                                   No pseudopotential on this center.
   41          1
                                   No pseudopotential on this center.
   42          1
                                   No pseudopotential on this center.
   43          1
                                   No pseudopotential on this center.
   44          1
                                   No pseudopotential on this center.
   45          1
                                   No pseudopotential on this center.
   46          1
                                   No pseudopotential on this center.
   47          1
                                   No pseudopotential on this center.
   48          7
                                   No pseudopotential on this center.
   49          6
                                   No pseudopotential on this center.
   50          6
                                   No pseudopotential on this center.
   51          1
                                   No pseudopotential on this center.
   52          1
                                   No pseudopotential on this center.
   53          1
                                   No pseudopotential on this center.
   54          1
                                   No pseudopotential on this center.
   55          1
                                   No pseudopotential on this center.
   56          6
                                   No pseudopotential on this center.
   57          6
                                   No pseudopotential on this center.
   58          1
                                   No pseudopotential on this center.
   59          1
                                   No pseudopotential on this center.
   60          1
                                   No pseudopotential on this center.
   61          1
                                   No pseudopotential on this center.
   62          1
                                   No pseudopotential on this center.
   63          6
                                   No pseudopotential on this center.
   64          6
                                   No pseudopotential on this center.
   65          1
                                   No pseudopotential on this center.
   66          1
                                   No pseudopotential on this center.
   67          1
                                   No pseudopotential on this center.
   68          1
                                   No pseudopotential on this center.
   69          1
                                   No pseudopotential on this center.
   70          6
                                   No pseudopotential on this center.
   71          6
                                   No pseudopotential on this center.
   72          1
                                   No pseudopotential on this center.
   73          1
                                   No pseudopotential on this center.
   74          1
                                   No pseudopotential on this center.
   75          1
                                   No pseudopotential on this center.
   76          1
                                   No pseudopotential on this center.
   77         35
                                   No pseudopotential on this center.
 ======================================================================================================
   893 basis functions,  1558 primitive gaussians,   934 cartesian basis functions
   165 alpha electrons      165 beta electrons
       nuclear repulsion energy      4731.6479215047 Hartrees.
 NAtoms=   77 NActive=   77 NUniq=   77 SFac= 1.00D+00 NAtFMM=   60 NAOKFM=T Big=T
 Integral buffers will be    131072 words long.
 Raffenetti 2 integral format.
 Two-electron integral symmetry is turned off.
 One-electron integrals computed using PRISM.
   1 Symmetry operations used in ECPInt.
 ECPInt:  NShTT=   50403 NPrTT=  223596 LenC2=   25967 LenP2D=   70692.
 LDataN:  DoStor=T MaxTD1= 5 Len=  102
 NBasis=   893 RedAO= T EigKep=  6.99D-06  NBF=   893
 NBsUse=   893 1.00D-06 EigRej= -1.00D+00 NBFU=   893
 ExpMin= 3.50D-02 ExpMax= 5.74D+05 ExpMxC= 5.74D+03 IAcc=3 IRadAn=         5 AccDes= 0.00D+00
 Harris functional with IExCor=  402 and IRadAn=       5 diagonalized for initial guess.
 HarFok:  IExCor=  402 AccDes= 0.00D+00 IRadAn=         5 IDoV= 1 UseB2=F ITyADJ=14
 ICtDFT=  3500011 ScaDFX=  1.000000  1.000000  1.000000  1.000000
 FoFCou: FMM=F IPFlag=           0 FMFlag=      100000 FMFlg1=        2001
         NFxFlg=           0 DoJE=T BraDBF=F KetDBF=T FulRan=T
         wScrn=  0.000000 ICntrl=       500 IOpCl=  0 I1Cent=   200000004 NGrid=           0
         NMat0=    1 NMatS0=      1 NMatT0=    0 NMatD0=    1 NMtDS0=    0 NMtDT0=    0
 Symmetry not used in FoFCou.
 Gradient too large for Newton-Raphson -- use scaled steepest descent instead.
     Accept linear search using points  2 and  3.
 Gradient too large for Newton-Raphson -- use scaled steepest descent instead.
     Accept linear search using points  2 and  3.
 Gradient too large for Newton-Raphson -- use scaled steepest descent instead.
     Accept linear search using points  2 and  3.
 Gradient too large for Newton-Raphson -- use scaled steepest descent instead.
     Accept linear search using points  1 and  2.
 Gradient too large for Newton-Raphson -- use scaled steepest descent instead.
     Accept linear search using points  2 and  3.
 Gradient too large for Newton-Raphson -- use scaled steepest descent instead.
     Accept linear search using points  1 and  2.
 LinEq1:  Iter=  0 NonCon=     1 RMS=1.64D-05 Max=1.32D-03 NDo=     1
 AX will form     1 AO Fock derivatives at one time.
 LinEq1:  Iter=  1 NonCon=     1 RMS=6.48D-06 Max=1.34D-03 NDo=     1
 LinEq1:  Iter=  2 NonCon=     1 RMS=1.31D-05 Max=2.34D-03 NDo=     1
 LinEq1:  Iter=  3 NonCon=     1 RMS=1.33D-05 Max=2.92D-03 NDo=     1
 LinEq1:  Iter=  4 NonCon=     1 RMS=2.16D-05 Max=3.93D-03 NDo=     1
 LinEq1:  Iter=  5 NonCon=     1 RMS=2.32D-05 Max=3.47D-03 NDo=     1
 LinEq1:  Iter=  6 NonCon=     1 RMS=1.90D-05 Max=4.07D-03 NDo=     1
 LinEq1:  Iter=  7 NonCon=     1 RMS=2.67D-05 Max=6.24D-03 NDo=     1
 LinEq1:  Iter=  8 NonCon=     1 RMS=1.70D-05 Max=1.64D-03 NDo=     1
 LinEq1:  Iter=  9 NonCon=     1 RMS=1.61D-05 Max=1.31D-03 NDo=     1
 LinEq1:  Iter= 10 NonCon=     1 RMS=7.94D-06 Max=3.25D-04 NDo=     1
 LinEq1:  Iter= 11 NonCon=     1 RMS=6.08D-06 Max=3.23D-04 NDo=     1
 LinEq1:  Iter= 12 NonCon=     1 RMS=4.48D-06 Max=2.85D-04 NDo=     1
 LinEq1:  Iter= 13 NonCon=     1 RMS=1.79D-06 Max=1.32D-04 NDo=     1
 LinEq1:  Iter= 14 NonCon=     1 RMS=1.14D-06 Max=9.91D-05 NDo=     1
 LinEq1:  Iter= 15 NonCon=     1 RMS=9.61D-07 Max=1.06D-04 NDo=     1
 LinEq1:  Iter= 16 NonCon=     1 RMS=6.97D-07 Max=8.72D-05 NDo=     1
 LinEq1:  Iter= 17 NonCon=     1 RMS=5.06D-07 Max=5.74D-05 NDo=     1
 LinEq1:  Iter= 18 NonCon=     1 RMS=3.07D-07 Max=4.71D-05 NDo=     1
 LinEq1:  Iter= 19 NonCon=     1 RMS=2.67D-07 Max=3.35D-05 NDo=     1
 LinEq1:  Iter= 20 NonCon=     1 RMS=1.26D-07 Max=1.76D-05 NDo=     1
 LinEq1:  Iter= 21 NonCon=     1 RMS=7.88D-08 Max=7.29D-06 NDo=     1
 LinEq1:  Iter= 22 NonCon=     1 RMS=4.29D-08 Max=3.17D-06 NDo=     1
 LinEq1:  Iter= 23 NonCon=     1 RMS=3.55D-08 Max=3.57D-06 NDo=     1
 LinEq1:  Iter= 24 NonCon=     1 RMS=2.69D-08 Max=2.32D-06 NDo=     1
 LinEq1:  Iter= 25 NonCon=     1 RMS=2.13D-08 Max=1.77D-06 NDo=     1
 LinEq1:  Iter= 26 NonCon=     1 RMS=1.39D-08 Max=9.70D-07 NDo=     1
 LinEq1:  Iter= 27 NonCon=     1 RMS=7.58D-09 Max=5.50D-07 NDo=     1
 LinEq1:  Iter= 28 NonCon=     0 RMS=4.37D-09 Max=3.17D-07 NDo=     1
 Linear equations converged to 4.901D-08 4.901D-07 after    28 iterations.
     Accept linear search using points  1 and  2.
     Minimum is close to point  2 DX= -1.03D-03 DF= -2.91D-11 DXR=  1.03D-03 DFR=  1.07D-06 which will be used.
 LinEq1:  Iter=  0 NonCon=     1 RMS=3.71D-07 Max=1.19D-04 NDo=     1
 LinEq1:  Iter=  1 NonCon=     1 RMS=2.13D-07 Max=2.67D-05 NDo=     1
 LinEq1:  Iter=  2 NonCon=     1 RMS=1.74D-07 Max=2.92D-05 NDo=     1
 LinEq1:  Iter=  3 NonCon=     1 RMS=1.98D-07 Max=4.66D-05 NDo=     1
 LinEq1:  Iter=  4 NonCon=     1 RMS=3.15D-07 Max=4.09D-05 NDo=     1
 LinEq1:  Iter=  5 NonCon=     1 RMS=2.47D-07 Max=5.61D-05 NDo=     1
 LinEq1:  Iter=  6 NonCon=     1 RMS=4.11D-07 Max=7.27D-05 NDo=     1
 LinEq1:  Iter=  7 NonCon=     1 RMS=4.15D-07 Max=3.65D-05 NDo=     1
 LinEq1:  Iter=  8 NonCon=     1 RMS=1.98D-07 Max=1.28D-05 NDo=     1
 LinEq1:  Iter=  9 NonCon=     1 RMS=1.51D-07 Max=9.56D-06 NDo=     1
 LinEq1:  Iter= 10 NonCon=     1 RMS=9.75D-08 Max=6.69D-06 NDo=     1
 LinEq1:  Iter= 11 NonCon=     1 RMS=7.14D-08 Max=5.67D-06 NDo=     1
 LinEq1:  Iter= 12 NonCon=     1 RMS=4.43D-08 Max=3.58D-06 NDo=     1
 LinEq1:  Iter= 13 NonCon=     1 RMS=2.48D-08 Max=2.57D-06 NDo=     1
 LinEq1:  Iter= 14 NonCon=     1 RMS=2.02D-08 Max=2.50D-06 NDo=     1
 LinEq1:  Iter= 15 NonCon=     1 RMS=1.29D-08 Max=1.39D-06 NDo=     1
 LinEq1:  Iter= 16 NonCon=     1 RMS=6.91D-09 Max=5.46D-07 NDo=     1
 LinEq1:  Iter= 17 NonCon=     1 RMS=4.83D-09 Max=5.67D-07 NDo=     1
 LinEq1:  Iter= 18 NonCon=     1 RMS=3.55D-09 Max=2.17D-07 NDo=     1
 LinEq1:  Iter= 19 NonCon=     1 RMS=2.19D-09 Max=2.06D-07 NDo=     1
 LinEq1:  Iter= 20 NonCon=     1 RMS=1.72D-09 Max=2.07D-07 NDo=     1
 LinEq1:  Iter= 21 NonCon=     1 RMS=9.35D-10 Max=1.04D-07 NDo=     1
 LinEq1:  Iter= 22 NonCon=     1 RMS=5.06D-10 Max=5.52D-08 NDo=     1
 LinEq1:  Iter= 23 NonCon=     1 RMS=3.32D-10 Max=2.86D-08 NDo=     1
 LinEq1:  Iter= 24 NonCon=     1 RMS=3.19D-10 Max=2.33D-08 NDo=     1
 LinEq1:  Iter= 25 NonCon=     1 RMS=1.69D-10 Max=9.08D-09 NDo=     1
 LinEq1:  Iter= 26 NonCon=     1 RMS=8.57D-11 Max=5.42D-09 NDo=     1
 LinEq1:  Iter= 27 NonCon=     1 RMS=5.60D-11 Max=4.57D-09 NDo=     1
 LinEq1:  Iter= 28 NonCon=     1 RMS=2.83D-11 Max=2.62D-09 NDo=     1
 LinEq1:  Iter= 29 NonCon=     1 RMS=1.79D-11 Max=1.93D-09 NDo=     1
 LinEq1:  Iter= 30 NonCon=     0 RMS=1.21D-11 Max=1.35D-09 NDo=     1
 Linear equations converged to 1.461D-10 1.461D-09 after    30 iterations.
 SCF Done:  E(RB3LYP) =  -4464.47222606     a.u. after    9 cycles
            Convg  =    0.2681D-07                    77 Fock formations.
              S**2 =  0.0000                  -V/T =  1.9810
 DoSCS=F DFT=T ScalE2(SS,OS)=  1.000000  1.000000
 Range of M.O.s used for correlation:     1   893
 NBasis=   893 NAE=   165 NBE=   165 NFC=     0 NFV=     0
 NROrb=    893 NOA=   165 NOB=   165 NVA=   728 NVB=   728

 **** Warning!!: The largest alpha MO coefficient is  0.67629108D+02


 **** Warning!!: The smallest alpha delta epsilon is  0.30658144D-02

   1 Symmetry operations used in ECPInt.
 ECPInt:  NShTT=   50403 NPrTT=  223596 LenC2=   25967 LenP2D=   70692.
 LDataN:  DoStor=T MaxTD1= 6 Len=  172
 Number of processors reduced to   9 by ecpmxn.
 Symmetrizing basis deriv contribution to polar:
 IMax=3 JMax=2 DiffMx= 0.00D+00
 G2DrvN: will do    78 centers at a time, making    1 passes.
 Calling FoFCou, ICntrl=  3107 FMM=T I1Cent=   0 AccDes= 0.00D+00.
 End of G2Drv F.D. properties file   721 does not exist.
 End of G2Drv F.D. properties file   722 does not exist.
 End of G2Drv F.D. properties file   788 does not exist.
          IDoAtm=00101001101000000000000000000111111111111111111000
          IDoAtm=000000000000000000000000001
          Differentiating once with respect to electric field.
                with respect to dipole field.
          Differentiating once with respect to nuclear coordinates.
 CalDSu exits because no D1Ps are significant.
          There are    75 degrees of freedom in the 1st order CPHF.  IDoFFX=6 NUNeed=     3.
     75 vectors produced by pass  0 Test12= 1.60D-13 1.33D-09 XBig12= 4.12D+02 7.68D+00.
 AX will form    75 AO Fock derivatives at one time.
     75 vectors produced by pass  1 Test12= 1.60D-13 1.33D-09 XBig12= 2.72D+02 6.97D+00.
     75 vectors produced by pass  2 Test12= 1.60D-13 1.33D-09 XBig12= 7.57D+01 3.93D+00.
     75 vectors produced by pass  3 Test12= 1.60D-13 1.33D-09 XBig12= 7.58D+00 4.08D-01.
     75 vectors produced by pass  4 Test12= 1.60D-13 1.33D-09 XBig12= 3.44D-01 1.26D-01.
     75 vectors produced by pass  5 Test12= 1.60D-13 1.33D-09 XBig12= 4.46D-03 1.51D-02.
     66 vectors produced by pass  6 Test12= 1.60D-13 1.33D-09 XBig12= 9.36D-05 1.96D-03.
     31 vectors produced by pass  7 Test12= 1.60D-13 1.33D-09 XBig12= 8.91D-07 2.12D-04.
      9 vectors produced by pass  8 Test12= 1.60D-13 1.33D-09 XBig12= 9.03D-09 9.80D-06.
      3 vectors produced by pass  9 Test12= 1.60D-13 1.33D-09 XBig12= 1.03D-10 1.18D-06.
      3 vectors produced by pass 10 Test12= 1.60D-13 1.33D-09 XBig12= 1.79D-12 2.27D-07.
      3 vectors produced by pass 11 Test12= 1.60D-13 1.33D-09 XBig12= 3.61D-14 4.16D-08.
      3 vectors produced by pass 12 Test12= 1.60D-13 1.33D-09 XBig12= 1.57D-14 1.24D-08.
      3 vectors produced by pass 13 Test12= 1.60D-13 1.33D-09 XBig12= 1.26D-14 1.41D-08.
      3 vectors produced by pass 14 Test12= 1.60D-13 1.33D-09 XBig12= 5.37D-15 4.95D-09.
      3 vectors produced by pass 15 Test12= 1.60D-13 1.33D-09 XBig12= 1.34D-14 8.75D-09.
      3 vectors produced by pass 16 Test12= 1.60D-13 1.33D-09 XBig12= 8.85D-15 5.93D-09.
      3 vectors produced by pass 17 Test12= 1.60D-13 1.33D-09 XBig12= 1.59D-14 7.79D-09.
      3 vectors produced by pass 18 Test12= 1.60D-13 1.33D-09 XBig12= 1.49D-14 8.74D-09.
      3 vectors produced by pass 19 Test12= 1.60D-13 1.33D-09 XBig12= 1.46D-14 7.51D-09.
      3 vectors produced by pass 20 Test12= 1.60D-13 1.33D-09 XBig12= 6.71D-15 5.79D-09.
      3 vectors produced by pass 21 Test12= 1.60D-13 1.33D-09 XBig12= 3.95D-15 4.07D-09.
      3 vectors produced by pass 22 Test12= 1.60D-13 1.33D-09 XBig12= 3.51D-15 3.38D-09.
      3 vectors produced by pass 23 Test12= 1.60D-13 1.33D-09 XBig12= 1.09D-14 6.01D-09.
      3 vectors produced by pass 24 Test12= 1.60D-13 1.33D-09 XBig12= 2.43D-14 9.58D-09.
      3 vectors produced by pass 25 Test12= 1.60D-13 1.33D-09 XBig12= 1.01D-14 6.08D-09.
      3 vectors produced by pass 26 Test12= 1.60D-13 1.33D-09 XBig12= 1.54D-14 6.96D-09.
      3 vectors produced by pass 27 Test12= 1.60D-13 1.33D-09 XBig12= 1.20D-14 8.19D-09.
      3 vectors produced by pass 28 Test12= 1.60D-13 1.33D-09 XBig12= 1.17D-14 5.63D-09.
      3 vectors produced by pass 29 Test12= 1.60D-13 1.33D-09 XBig12= 9.00D-15 6.73D-09.
      3 vectors produced by pass 30 Test12= 1.60D-13 1.33D-09 XBig12= 6.85D-15 4.94D-09.
      3 vectors produced by pass 31 Test12= 1.60D-13 1.33D-09 XBig12= 1.46D-14 6.93D-09.
      3 vectors produced by pass 32 Test12= 1.60D-13 1.33D-09 XBig12= 5.89D-15 4.76D-09.
      3 vectors produced by pass 33 Test12= 1.60D-13 1.33D-09 XBig12= 7.26D-15 4.57D-09.
      3 vectors produced by pass 34 Test12= 1.60D-13 1.33D-09 XBig12= 1.21D-14 6.05D-09.
      3 vectors produced by pass 35 Test12= 1.60D-13 1.33D-09 XBig12= 8.60D-15 5.02D-09.
      3 vectors produced by pass 36 Test12= 1.60D-13 1.33D-09 XBig12= 8.43D-15 4.93D-09.
      3 vectors produced by pass 37 Test12= 1.60D-13 1.33D-09 XBig12= 1.07D-14 5.99D-09.
      3 vectors produced by pass 38 Test12= 1.60D-13 1.33D-09 XBig12= 1.43D-14 6.11D-09.
      3 vectors produced by pass 39 Test12= 1.60D-13 1.33D-09 XBig12= 1.10D-14 5.68D-09.
      3 vectors produced by pass 40 Test12= 1.60D-13 1.33D-09 XBig12= 8.11D-15 5.35D-09.
      3 vectors produced by pass 41 Test12= 1.60D-13 1.33D-09 XBig12= 7.31D-15 5.01D-09.
      2 vectors produced by pass 42 Test12= 1.60D-13 1.33D-09 XBig12= 3.62D-15 3.03D-09.
      2 vectors produced by pass 43 Test12= 1.60D-13 1.33D-09 XBig12= 4.07D-16 2.27D-09.
      2 vectors produced by pass 44 Test12= 1.60D-13 1.33D-09 XBig12= 4.43D-16 1.72D-09.
      1 vectors produced by pass 45 Test12= 1.60D-13 1.33D-09 XBig12= 3.51D-16 1.56D-09.
      1 vectors produced by pass 46 Test12= 1.60D-13 1.33D-09 XBig12= 5.40D-16 1.70D-09.
      1 vectors produced by pass 47 Test12= 1.60D-13 1.33D-09 XBig12= 5.86D-16 1.76D-09.
      1 vectors produced by pass 48 Test12= 1.60D-13 1.33D-09 XBig12= 6.04D-16 2.20D-09.
      1 vectors produced by pass 49 Test12= 1.60D-13 1.33D-09 XBig12= 5.63D-16 1.77D-09.
      1 vectors produced by pass 50 Test12= 1.60D-13 1.33D-09 XBig12= 5.35D-16 1.64D-09.
      1 vectors produced by pass 51 Test12= 1.60D-13 1.33D-09 XBig12= 6.04D-16 1.83D-09.
      1 vectors produced by pass 52 Test12= 1.60D-13 1.33D-09 XBig12= 5.52D-16 1.56D-09.
      1 vectors produced by pass 53 Test12= 1.60D-13 1.33D-09 XBig12= 6.01D-16 2.05D-09.
      1 vectors produced by pass 54 Test12= 1.60D-13 1.33D-09 XBig12= 4.52D-16 1.54D-09.
      1 vectors produced by pass 55 Test12= 1.60D-13 1.33D-09 XBig12= 6.88D-16 1.84D-09.
      1 vectors produced by pass 56 Test12= 1.60D-13 1.33D-09 XBig12= 5.49D-16 1.37D-09.
      1 vectors produced by pass 57 Test12= 1.60D-13 1.33D-09 XBig12= 5.32D-16 1.43D-09.
      1 vectors produced by pass 58 Test12= 1.60D-13 1.33D-09 XBig12= 7.09D-16 2.44D-09.
      1 vectors produced by pass 59 Test12= 1.60D-13 1.33D-09 XBig12= 4.61D-16 1.81D-09.
      1 vectors produced by pass 60 Test12= 1.60D-13 1.33D-09 XBig12= 5.26D-16 1.79D-09.
      1 vectors produced by pass 61 Test12= 1.60D-13 1.33D-09 XBig12= 5.11D-16 1.86D-09.
      1 vectors produced by pass 62 Test12= 1.60D-13 1.33D-09 XBig12= 5.09D-16 1.42D-09.
      1 vectors produced by pass 63 Test12= 1.60D-13 1.33D-09 XBig12= 5.26D-16 1.34D-09.
      1 vectors produced by pass 64 Test12= 1.60D-13 1.33D-09 XBig12= 5.95D-16 1.41D-09.
      1 vectors produced by pass 65 Test12= 1.60D-13 1.33D-09 XBig12= 4.71D-16 1.56D-09.
      1 vectors produced by pass 66 Test12= 1.60D-13 1.33D-09 XBig12= 6.01D-16 1.68D-09.
      1 vectors produced by pass 67 Test12= 1.60D-13 1.33D-09 XBig12= 5.95D-16 1.77D-09.
      1 vectors produced by pass 68 Test12= 1.60D-13 1.33D-09 XBig12= 4.77D-16 1.48D-09.
      1 vectors produced by pass 69 Test12= 1.60D-13 1.33D-09 XBig12= 4.84D-16 1.77D-09.
      1 vectors produced by pass 70 Test12= 1.60D-13 1.33D-09 XBig12= 4.94D-16 1.47D-09.
      1 vectors produced by pass 71 Test12= 1.60D-13 1.33D-09 XBig12= 5.25D-16 1.77D-09.
      1 vectors produced by pass 72 Test12= 1.60D-13 1.33D-09 XBig12= 4.43D-16 1.35D-09.
 InvSVY:  IOpt=1 It=  1 EMax= 1.64D-14
 Solved reduced A of dimension   689 with    75 vectors.
 Isotropic polarizability for W=    0.000000      387.82 Bohr**3.
 End of Minotr F.D. properties file   721 does not exist.
 End of Minotr F.D. properties file   722 does not exist.
 End of Minotr F.D. properties file   788 does not exist.

 **********************************************************************

            Population analysis using the SCF density.

 **********************************************************************

 Alpha  occ. eigenvalues -- -482.45319 -61.53774 -56.10504 -56.10485 -56.10477
 Alpha  occ. eigenvalues --  -19.11676 -19.09165 -19.08944 -19.08864 -19.08410
 Alpha  occ. eigenvalues --  -19.08295 -19.08250 -19.08197 -19.08160 -19.08002
 Alpha  occ. eigenvalues --  -14.57031 -14.36081 -10.35891 -10.35664 -10.35509
 Alpha  occ. eigenvalues --  -10.35111 -10.29846 -10.29448 -10.29213 -10.28934
 Alpha  occ. eigenvalues --  -10.25171 -10.25073 -10.24920 -10.24822 -10.22805
 Alpha  occ. eigenvalues --  -10.22802 -10.21552 -10.20281 -10.20280 -10.18038
 Alpha  occ. eigenvalues --  -10.17805 -10.16672 -10.16414 -10.14611 -10.13940
 Alpha  occ. eigenvalues --   -8.30749  -6.31551  -6.31542  -6.31532  -2.43656
 Alpha  occ. eigenvalues --   -2.43655  -2.43647  -2.43639  -2.43638  -1.12026
 Alpha  occ. eigenvalues --   -1.01667  -1.01162  -1.01097  -1.00843  -1.00719
 Alpha  occ. eigenvalues --   -0.97433  -0.95655  -0.92932  -0.92671  -0.92540
 Alpha  occ. eigenvalues --   -0.92481  -0.90328  -0.90164  -0.89859  -0.84849
 Alpha  occ. eigenvalues --   -0.81308  -0.77443  -0.77033  -0.76904  -0.75883
 Alpha  occ. eigenvalues --   -0.74249  -0.69154  -0.68492  -0.64027  -0.63583
 Alpha  occ. eigenvalues --   -0.63506  -0.63405  -0.62702  -0.61573  -0.59130
 Alpha  occ. eigenvalues --   -0.59015  -0.57889  -0.57757  -0.57018  -0.56394
 Alpha  occ. eigenvalues --   -0.56137  -0.55432  -0.55376  -0.55261  -0.55247
 Alpha  occ. eigenvalues --   -0.55015  -0.54901  -0.54660  -0.54262  -0.54200
 Alpha  occ. eigenvalues --   -0.53433  -0.52942  -0.52820  -0.52650  -0.52082
 Alpha  occ. eigenvalues --   -0.51952  -0.51353  -0.51310  -0.50713  -0.50464
 Alpha  occ. eigenvalues --   -0.50313  -0.50248  -0.49794  -0.49193  -0.48846
 Alpha  occ. eigenvalues --   -0.48009  -0.47399  -0.47356  -0.47215  -0.46290
 Alpha  occ. eigenvalues --   -0.45818  -0.45372  -0.44776  -0.44075  -0.43992
 Alpha  occ. eigenvalues --   -0.43372  -0.42736  -0.42553  -0.42256  -0.41543
 Alpha  occ. eigenvalues --   -0.41179  -0.41061  -0.40794  -0.40509  -0.40437
 Alpha  occ. eigenvalues --   -0.39697  -0.38406  -0.38136  -0.37025  -0.36848
 Alpha  occ. eigenvalues --   -0.36734  -0.36555  -0.35010  -0.34868  -0.32252
 Alpha  occ. eigenvalues --   -0.31332  -0.31099  -0.30037  -0.29835  -0.28386
 Alpha  occ. eigenvalues --   -0.26995  -0.26961  -0.26606  -0.25139  -0.24986
 Alpha  occ. eigenvalues --   -0.24832  -0.24103  -0.23705  -0.23635  -0.23416
 Alpha  occ. eigenvalues --   -0.22868  -0.22768  -0.22640  -0.22575  -0.22363
 Alpha  occ. eigenvalues --   -0.20818  -0.19826  -0.10027  -0.09912  -0.09832
 Alpha virt. eigenvalues --   -0.09525  -0.07822  -0.07679  -0.07399  -0.05551
 Alpha virt. eigenvalues --   -0.05400  -0.04466  -0.04392  -0.04042  -0.03721
 Alpha virt. eigenvalues --   -0.03449  -0.02169  -0.01812  -0.01637  -0.00960
 Alpha virt. eigenvalues --   -0.00344  -0.00263   0.00024   0.00372   0.01276
 Alpha virt. eigenvalues --    0.01301   0.01526   0.02172   0.02996   0.03085
 Alpha virt. eigenvalues --    0.03517   0.03638   0.04056   0.04136   0.04392
 Alpha virt. eigenvalues --    0.04415   0.05047   0.05117   0.05623   0.05853
 Alpha virt. eigenvalues --    0.06003   0.06078   0.06279   0.06292   0.06319
 Alpha virt. eigenvalues --    0.06550   0.06820   0.06999   0.07611   0.07699
 Alpha virt. eigenvalues --    0.07787   0.07937   0.08109   0.08271   0.08354
 Alpha virt. eigenvalues --    0.08359   0.08587   0.08954   0.08981   0.09298
 Alpha virt. eigenvalues --    0.09603   0.09855   0.10186   0.10261   0.10581
 Alpha virt. eigenvalues --    0.10737   0.10740   0.11226   0.11261   0.11496
 Alpha virt. eigenvalues --    0.11640   0.11716   0.11744   0.12178   0.12270
 Alpha virt. eigenvalues --    0.12548   0.12677   0.12872   0.13060   0.13224
 Alpha virt. eigenvalues --    0.13648   0.13945   0.14140   0.14257   0.14522
 Alpha virt. eigenvalues --    0.14553   0.14850   0.15002   0.15066   0.15219
 Alpha virt. eigenvalues --    0.15388   0.15547   0.15637   0.15692   0.16210
 Alpha virt. eigenvalues --    0.16335   0.16501   0.16646   0.16905   0.17148
 Alpha virt. eigenvalues --    0.17286   0.17514   0.17684   0.17949   0.17989
 Alpha virt. eigenvalues --    0.18143   0.18337   0.18571   0.18858   0.18897
 Alpha virt. eigenvalues --    0.19096   0.19176   0.19392   0.19544   0.19992
 Alpha virt. eigenvalues --    0.20256   0.20399   0.20564   0.20662   0.20852
 Alpha virt. eigenvalues --    0.21016   0.21133   0.21138   0.21636   0.21682
 Alpha virt. eigenvalues --    0.21999   0.22222   0.22298   0.22742   0.22947
 Alpha virt. eigenvalues --    0.23255   0.23424   0.23782   0.23940   0.24346
 Alpha virt. eigenvalues --    0.24534   0.25103   0.25179   0.25580   0.25878
 Alpha virt. eigenvalues --    0.25912   0.26070   0.26210   0.26608   0.26693
 Alpha virt. eigenvalues --    0.27038   0.27222   0.27404   0.27544   0.28048
 Alpha virt. eigenvalues --    0.28071   0.28621   0.28774   0.28992   0.29195
 Alpha virt. eigenvalues --    0.29371   0.29726   0.30009   0.30212   0.30389
 Alpha virt. eigenvalues --    0.30440   0.30717   0.30893   0.31129   0.31528
 Alpha virt. eigenvalues --    0.32149   0.32448   0.32947   0.33073   0.33421
 Alpha virt. eigenvalues --    0.33474   0.33795   0.34024   0.34730   0.34801
 Alpha virt. eigenvalues --    0.34998   0.35108   0.35534   0.36113   0.36808
 Alpha virt. eigenvalues --    0.36935   0.37100   0.37309   0.37715   0.38178
 Alpha virt. eigenvalues --    0.38310   0.38551   0.38678   0.39076   0.39652
 Alpha virt. eigenvalues --    0.39726   0.40058   0.40913   0.41101   0.41354
 Alpha virt. eigenvalues --    0.41763   0.42207   0.42469   0.42532   0.42972
 Alpha virt. eigenvalues --    0.43364   0.43919   0.44229   0.44386   0.44713
 Alpha virt. eigenvalues --    0.44933   0.45220   0.45498   0.45889   0.46085
 Alpha virt. eigenvalues --    0.46380   0.46708   0.47307   0.47577   0.47996
 Alpha virt. eigenvalues --    0.48397   0.48590   0.48839   0.49454   0.49530
 Alpha virt. eigenvalues --    0.50182   0.50375   0.50660   0.50934   0.51478
 Alpha virt. eigenvalues --    0.51673   0.52024   0.52192   0.52605   0.52901
 Alpha virt. eigenvalues --    0.53310   0.53933   0.55397   0.56089   0.56587
 Alpha virt. eigenvalues --    0.56659   0.56881   0.57300   0.57415   0.58102
 Alpha virt. eigenvalues --    0.58254   0.58665   0.59218   0.59609   0.60180
 Alpha virt. eigenvalues --    0.60553   0.60638   0.61406   0.61598   0.61942
 Alpha virt. eigenvalues --    0.62092   0.64225   0.64467   0.65889   0.66057
 Alpha virt. eigenvalues --    0.67222   0.67806   0.68031   0.68352   0.69135
 Alpha virt. eigenvalues --    0.69227   0.69505   0.69809   0.70199   0.70291
 Alpha virt. eigenvalues --    0.71140   0.71265   0.72065   0.73496   0.73961
 Alpha virt. eigenvalues --    0.74390   0.74395   0.75077   0.75194   0.75986
 Alpha virt. eigenvalues --    0.76500   0.77216   0.77225   0.77559   0.78467
 Alpha virt. eigenvalues --    0.78956   0.79085   0.79511   0.79991   0.80029
 Alpha virt. eigenvalues --    0.80958   0.80976   0.81331   0.82705   0.82890
 Alpha virt. eigenvalues --    0.83914   0.84124   0.84499   0.84789   0.85474
 Alpha virt. eigenvalues --    0.85484   0.85899   0.86420   0.87376   0.87407
 Alpha virt. eigenvalues --    0.87825   0.87989   0.88676   0.88687   0.88892
 Alpha virt. eigenvalues --    0.88910   0.89863   0.90577   0.91507   0.91721
 Alpha virt. eigenvalues --    0.92095   0.92495   0.92953   0.92963   0.93072
 Alpha virt. eigenvalues --    0.93490   0.93593   0.94499   0.95010   0.95835
 Alpha virt. eigenvalues --    0.96210   0.96800   0.97175   0.97230   0.97920
 Alpha virt. eigenvalues --    0.98381   0.98721   0.99200   0.99743   1.00553
 Alpha virt. eigenvalues --    1.00878   1.01515   1.01524   1.01741   1.02184
 Alpha virt. eigenvalues --    1.03134   1.03162   1.03195   1.03670   1.04042
 Alpha virt. eigenvalues --    1.04959   1.05105   1.05955   1.06637   1.06652
 Alpha virt. eigenvalues --    1.07041   1.07473   1.07899   1.08047   1.09184
 Alpha virt. eigenvalues --    1.10108   1.11327   1.12292   1.12438   1.13060
 Alpha virt. eigenvalues --    1.13211   1.14174   1.15006   1.15566   1.15814
 Alpha virt. eigenvalues --    1.17212   1.17735   1.18268   1.19284   1.20000
 Alpha virt. eigenvalues --    1.20277   1.20841   1.21510   1.22349   1.22879
 Alpha virt. eigenvalues --    1.23104   1.23812   1.23937   1.24484   1.25052
 Alpha virt. eigenvalues --    1.25681   1.26114   1.26510   1.26885   1.28164
 Alpha virt. eigenvalues --    1.28267   1.29064   1.29119   1.29924   1.31144
 Alpha virt. eigenvalues --    1.31203   1.31365   1.31462   1.32072   1.32486
 Alpha virt. eigenvalues --    1.32730   1.33401   1.34289   1.35974   1.36191
 Alpha virt. eigenvalues --    1.37683   1.38249   1.38761   1.38955   1.39193
 Alpha virt. eigenvalues --    1.39675   1.40059   1.40331   1.41877   1.41939
 Alpha virt. eigenvalues --    1.42318   1.42598   1.43372   1.43677   1.44017
 Alpha virt. eigenvalues --    1.44974   1.45002   1.45613   1.46146   1.46778
 Alpha virt. eigenvalues --    1.47540   1.47798   1.48126   1.48665   1.49371
 Alpha virt. eigenvalues --    1.49734   1.50101   1.50221   1.50286   1.51095
 Alpha virt. eigenvalues --    1.51765   1.52529   1.52565   1.53821   1.54290
 Alpha virt. eigenvalues --    1.55081   1.56088   1.57060   1.57693   1.58227
 Alpha virt. eigenvalues --    1.58244   1.58703   1.59544   1.60467   1.60773
 Alpha virt. eigenvalues --    1.60927   1.61027   1.61844   1.62822   1.64486
 Alpha virt. eigenvalues --    1.65489   1.66408   1.66984   1.67934   1.68901
 Alpha virt. eigenvalues --    1.69569   1.70024   1.71281   1.71661   1.72003
 Alpha virt. eigenvalues --    1.72316   1.73228   1.73720   1.74095   1.75026
 Alpha virt. eigenvalues --    1.76509   1.77526   1.77598   1.78197   1.78483
 Alpha virt. eigenvalues --    1.80722   1.80936   1.82090   1.83086   1.84011
 Alpha virt. eigenvalues --    1.84779   1.85126   1.85412   1.85919   1.86368
 Alpha virt. eigenvalues --    1.87105   1.87434   1.87892   1.87980   1.88123
 Alpha virt. eigenvalues --    1.88650   1.88917   1.89121   1.90352   1.90656
 Alpha virt. eigenvalues --    1.90915   1.92024   1.92048   1.92773   1.93000
 Alpha virt. eigenvalues --    1.93185   1.94138   1.94176   1.94331   1.94370
 Alpha virt. eigenvalues --    1.94839   1.95051   1.95530   1.96544   1.96593
 Alpha virt. eigenvalues --    1.96694   1.97107   1.97263   1.97516   1.97748
 Alpha virt. eigenvalues --    1.98158   1.99305   1.99525   1.99534   1.99915
 Alpha virt. eigenvalues --    2.00117   2.00214   2.00408   2.00999   2.01021
 Alpha virt. eigenvalues --    2.01364   2.01879   2.01924   2.02042   2.02309
 Alpha virt. eigenvalues --    2.02457   2.02540   2.03703   2.03711   2.04196
 Alpha virt. eigenvalues --    2.04283   2.04326   2.04832   2.05163   2.06168
 Alpha virt. eigenvalues --    2.06396   2.07495   2.07844   2.08328   2.08610
 Alpha virt. eigenvalues --    2.09025   2.09639   2.10467   2.11157   2.11383
 Alpha virt. eigenvalues --    2.11662   2.12218   2.13233   2.14106   2.14367
 Alpha virt. eigenvalues --    2.14587   2.15160   2.15581   2.16954   2.18147
 Alpha virt. eigenvalues --    2.18223   2.19402   2.20018   2.21236   2.22547
 Alpha virt. eigenvalues --    2.23327   2.23854   2.23966   2.24906   2.25436
 Alpha virt. eigenvalues --    2.25524   2.26402   2.27314   2.28619   2.29042
 Alpha virt. eigenvalues --    2.29184   2.29283   2.30060   2.30198   2.30950
 Alpha virt. eigenvalues --    2.31039   2.31388   2.31643   2.31848   2.32535
 Alpha virt. eigenvalues --    2.32644   2.33327   2.33732   2.33741   2.34134
 Alpha virt. eigenvalues --    2.34800   2.36008   2.36782   2.37216   2.37625
 Alpha virt. eigenvalues --    2.37963   2.38892   2.39239   2.39717   2.39738
 Alpha virt. eigenvalues --    2.40398   2.40964   2.41519   2.42407   2.43964
 Alpha virt. eigenvalues --    2.47796   2.48274   2.48795   2.50248   2.50654
 Alpha virt. eigenvalues --    2.51883   2.53011   2.53135   2.54652   2.54830
 Alpha virt. eigenvalues --    2.55261   2.56186   2.56983   2.57314   2.57511
 Alpha virt. eigenvalues --    2.58925   2.59024   2.59288   2.60246   2.60545
 Alpha virt. eigenvalues --    2.61509   2.61879   2.62522   2.62914   2.63065
 Alpha virt. eigenvalues --    2.63240   2.63600   2.64250   2.65413   2.66389
 Alpha virt. eigenvalues --    2.66756   2.66994   2.67411   2.68787   2.69308
 Alpha virt. eigenvalues --    2.69661   2.70407   2.70958   2.71528   2.72491
 Alpha virt. eigenvalues --    2.72781   2.73111   2.73434   2.73499   2.74150
 Alpha virt. eigenvalues --    2.74556   2.74874   2.75152   2.75282   2.75856
 Alpha virt. eigenvalues --    2.76440   2.77444   2.78080   2.79800   2.80225
 Alpha virt. eigenvalues --    2.80403   2.81037   2.82916   2.82945   2.83307
 Alpha virt. eigenvalues --    2.83919   2.84056   2.86072   2.86148   2.86190
 Alpha virt. eigenvalues --    2.86315   2.86557   2.86950   2.87178   2.88509
 Alpha virt. eigenvalues --    2.89337   2.90373   2.91200   2.93609   2.97307
 Alpha virt. eigenvalues --    2.98918   3.02028   3.03247   3.04830   3.07448
 Alpha virt. eigenvalues --    3.07972   3.09527   3.09825   3.10755   3.11500
 Alpha virt. eigenvalues --    3.11598   3.12105   3.12902   3.15479   3.15685
 Alpha virt. eigenvalues --    3.16074   3.16417   3.17081   3.17479   3.18094
 Alpha virt. eigenvalues --    3.20500   3.20835   3.21824   3.21863   3.22713
 Alpha virt. eigenvalues --    3.24106   3.24616   3.26669   3.27474   3.28954
 Alpha virt. eigenvalues --    3.31230   3.32256   3.32625   3.32859   3.32926
 Alpha virt. eigenvalues --    3.34013   3.36691   3.37802   3.38674   3.39833
 Alpha virt. eigenvalues --    3.41043   3.42309   3.42564   3.43464   3.44167
 Alpha virt. eigenvalues --    3.44264   3.44349   3.44641   3.50573   3.52801
 Alpha virt. eigenvalues --    3.53151   3.53380   3.53814   3.54233   3.54950
 Alpha virt. eigenvalues --    3.57585   3.58453   3.65821   3.73559   3.93102
 Alpha virt. eigenvalues --    8.76041  11.37927  11.62255
          Condensed to atoms (all electrons):
 Mulliken charges:
               1
     1  Zn   0.719447
     2  O   -0.494460
     3  O   -0.463803
     4  O   -0.440876
     5  O   -0.488504
     6  C    0.448876
     7  C    0.466915
     8  Zn   0.498222
     9  O   -0.439523
    10  O   -0.508736
    11  O   -0.415305
    12  O   -0.450646
    13  C    0.456983
    14  C    0.439071
    15  H    0.073027
    16  H    0.089410
    17  H    0.082245
    18  H    0.083788
    19  C   -0.313408
    20  C    0.101888
    21  C   -0.569875
    22  C    0.066182
    23  C   -0.317730
    24  N    0.218407
    25  H    0.139786
    26  H    0.198074
    27  H    0.140319
    28  H    0.140408
    29  H    0.198356
    30  C   -0.302665
    31  C    0.109983
    32  C   -0.237526
    33  O   -0.304190
    34  C   -0.163954
    35  C    0.108072
    36  C   -0.186033
    37  O   -0.251642
    38  H    0.122869
    39  H    0.126119
    40  H    0.129919
    41  H    0.122018
    42  H    0.137455
    43  H    0.184188
    44  H    0.133500
    45  H    0.151288
    46  H    0.163224
    47  H    0.214457
    48  N   -0.711312
    49  C    0.077545
    50  C   -0.610609
    51  H    0.191338
    52  H    0.187870
    53  H    0.185374
    54  H    0.174160
    55  H    0.180056
    56  C    0.047707
    57  C   -0.557534
    58  H    0.195658
    59  H    0.191101
    60  H    0.197905
    61  H    0.179922
    62  H    0.173266
    63  C    0.119079
    64  C   -0.535765
    65  H    0.188402
    66  H    0.194080
    67  H    0.188098
    68  H    0.171215
    69  H    0.174735
    70  C    0.031960
    71  C   -0.540947
    72  H    0.187701
    73  H    0.181950
    74  H    0.191512
    75  H    0.179006
    76  H    0.166495
    77  Br  -0.915587
 Sum of Mulliken charges =   0.00000
 Mulliken charges with hydrogens summed into heavy atoms:
               1
     1  Zn   0.719447
     2  O   -0.494460
     3  O   -0.463803
     4  O   -0.440876
     5  O   -0.488504
     6  C    0.521904
     7  C    0.556324
     8  Zn   0.498222
     9  O   -0.439523
    10  O   -0.508736
    11  O   -0.415305
    12  O   -0.450646
    13  C    0.539227
    14  C    0.522860
    19  C   -0.115333
    20  C    0.242207
    21  C   -0.430089
    22  C    0.206590
    23  C   -0.119373
    24  N    0.218407
    30  C   -0.053677
    31  C    0.239902
    32  C    0.021947
    33  O   -0.304190
    34  C    0.153734
    35  C    0.259360
    36  C    0.191648
    37  O   -0.251642
    48  N   -0.711312
    49  C    0.456753
    50  C   -0.071019
    56  C    0.434466
    57  C   -0.006441
    63  C    0.501562
    64  C   -0.001717
    70  C    0.401611
    71  C   -0.003934
    77  Br  -0.915587
 Electronic spatial extent (au):  <R**2>=          92956.5152
 Charge=              0.0000 electrons
 Dipole moment (field-independent basis, Debye):
    X=             27.8558    Y=             39.4211    Z=            -45.0297  Tot=             66.0125
 Quadrupole moment (field-independent basis, Debye-Ang):
   XX=            176.9812   YY=             32.2363   ZZ=            155.8216
   XY=            349.4024   XZ=           -410.3345   YZ=           -335.2467
 Traceless Quadrupole moment (field-independent basis, Debye-Ang):
   XX=             55.3015   YY=            -89.4434   ZZ=             34.1419
   XY=            349.4024   XZ=           -410.3345   YZ=           -335.2467
 Octapole moment (field-independent basis, Debye-Ang**2):
  XXX=           2811.5595  YYY=           2081.0333  ZZZ=          -4023.3507  XYY=           2625.6312
  XXY=           2954.6176  XXZ=          -3613.9137  XZZ=           3852.3410  YZZ=           3309.9612
  YYZ=          -2768.8546  XYZ=          -3249.9493
 Hexadecapole moment (field-independent basis, Debye-Ang**3):
 XXXX=          -5305.8221 YYYY=          -7955.5151 ZZZZ=            -96.3991 XXXY=          17256.8785
 XXXZ=         -20925.2399 YYYX=           6182.7861 YYYZ=          -8366.9511 ZZZX=         -20347.8471
 ZZZY=         -18452.0864 XXYY=          13525.2074 XXZZ=          22303.0262 YYZZ=          15225.1975
 XXYZ=         -26147.4930 YYXZ=         -19772.6962 ZZXY=          25612.3706
 N-N= 4.731647921505D+03 E-N=-2.020719280264D+04  KE= 4.550950758728D+03
  Exact polarizability: 449.140  22.309 342.391 -22.754  22.137 371.920
 Approx polarizability: 608.431  11.255 487.355 -26.130  31.906 502.528
   1 Symmetry operations used in ECPInt.
 ECPInt:  NShTT=   50403 NPrTT=  223596 LenC2=   25967 LenP2D=   70692.
 LDataN:  DoStor=T MaxTD1= 7 Len=  274
 Calling FoFJK, ICntrl=    100127 FMM=F ISym2X=0 I1Cent= 0 IOpClX= 0 NMat=1 NMatS=1 NMatT=0.
 -------------------------------------------------------------------
 Center     Atomic                   Forces (Hartrees/Bohr)
 Number     Number              X              Y              Z
 -------------------------------------------------------------------
      1       30          -0.000000000   -0.000000000   -0.000000000
      2        8          -0.000000000   -0.000000000   -0.000000000
      3        8          -0.000074091    0.000017267    0.000035737
      4        8          -0.000000000   -0.000000000   -0.000000000
      5        8          -0.000131501    0.000012577   -0.000021815
      6        6          -0.000000000   -0.000000000   -0.000000000
      7        6          -0.000000000   -0.000000000   -0.000000000
      8       30           0.000186270    0.000048683   -0.000063206
      9        8          -0.000069980   -0.000044984   -0.000016112
     10        8          -0.000000000   -0.000000000   -0.000000000
     11        8          -0.000068875   -0.000038198    0.000042920
     12        8          -0.000000000   -0.000000000   -0.000000000
     13        6          -0.000000000   -0.000000000   -0.000000000
     14        6          -0.000000000   -0.000000000   -0.000000000
     15        1          -0.000000000   -0.000000000   -0.000000000
     16        1          -0.000000000   -0.000000000   -0.000000000
     17        1          -0.000000000   -0.000000000   -0.000000000
     18        1          -0.000000000   -0.000000000   -0.000000000
     19        6          -0.000000000   -0.000000000   -0.000000000
     20        6          -0.000000000   -0.000000000   -0.000000000
     21        6          -0.000000000   -0.000000000   -0.000000000
     22        6          -0.000000000   -0.000000000   -0.000000000
     23        6          -0.000000000   -0.000000000   -0.000000000
     24        7          -0.000000000   -0.000000000   -0.000000000
     25        1          -0.000000000   -0.000000000   -0.000000000
     26        1          -0.000000000   -0.000000000   -0.000000000
     27        1          -0.000000000   -0.000000000   -0.000000000
     28        1          -0.000000000   -0.000000000   -0.000000000
     29        1          -0.000000000   -0.000000000   -0.000000000
     30        6           0.000019524    0.000087468   -0.000114748
     31        6           0.000010104    0.000009182   -0.000038429
     32        6           0.000126761   -0.000045677   -0.000115505
     33        8          -0.000023221    0.000029985    0.000081531
     34        6           0.000107648    0.000004878   -0.000172883
     35        6           0.000048676    0.000025171   -0.000127022
     36        6           0.000115584    0.000087217   -0.000141372
     37        8          -0.000184450   -0.000123685    0.000089946
     38        1          -0.000006267    0.000004762   -0.000004838
     39        1           0.000046183    0.000010244   -0.000006337
     40        1          -0.000040369   -0.000008269   -0.000009941
     41        1           0.000001357   -0.000014062    0.000005906
     42        1           0.000020626    0.000013710   -0.000003219
     43        1           0.000002068   -0.000036505   -0.000037084
     44        1           0.000007847   -0.000003359    0.000002389
     45        1           0.000003603    0.000001857   -0.000016154
     46        1           0.000003317    0.000027642   -0.000005954
     47        1           0.000045218    0.000011293   -0.000006577
     48        7          -0.000000000   -0.000000000   -0.000000000
     49        6          -0.000000000   -0.000000000   -0.000000000
     50        6          -0.000000000   -0.000000000   -0.000000000
     51        1          -0.000000000   -0.000000000   -0.000000000
     52        1          -0.000000000   -0.000000000   -0.000000000
     53        1          -0.000000000   -0.000000000   -0.000000000
     54        1          -0.000000000   -0.000000000   -0.000000000
     55        1          -0.000000000   -0.000000000   -0.000000000
     56        6          -0.000000000   -0.000000000   -0.000000000
     57        6          -0.000000000   -0.000000000   -0.000000000
     58        1          -0.000000000   -0.000000000   -0.000000000
     59        1          -0.000000000   -0.000000000   -0.000000000
     60        1          -0.000000000   -0.000000000   -0.000000000
     61        1          -0.000000000   -0.000000000   -0.000000000
     62        1          -0.000000000   -0.000000000   -0.000000000
     63        6          -0.000000000   -0.000000000   -0.000000000
     64        6          -0.000000000   -0.000000000   -0.000000000
     65        1          -0.000000000   -0.000000000   -0.000000000
     66        1          -0.000000000   -0.000000000   -0.000000000
     67        1          -0.000000000   -0.000000000   -0.000000000
     68        1          -0.000000000   -0.000000000   -0.000000000
     69        1          -0.000000000   -0.000000000   -0.000000000
     70        6          -0.000000000   -0.000000000   -0.000000000
     71        6          -0.000000000   -0.000000000   -0.000000000
     72        1          -0.000000000   -0.000000000   -0.000000000
     73        1          -0.000000000   -0.000000000   -0.000000000
     74        1          -0.000000000   -0.000000000   -0.000000000
     75        1          -0.000000000   -0.000000000   -0.000000000
     76        1          -0.000000000   -0.000000000   -0.000000000
     77       35           0.000650344    0.000741522   -0.000128373
 -------------------------------------------------------------------
 Cartesian Forces:  Max     0.000741522 RMS     0.000075108

 GradGradGradGradGradGradGradGradGradGradGradGradGradGradGradGradGradGrad
 Berny optimization.
 Search for a local minimum.
 Step number   1 out of a maximum of  241
 All quantities printed in internal units (Hartrees-Bohrs-Radians)
 Second derivative matrix not updated -- analytic derivatives used.
 ITU=  0
     Eigenvalues ---    0.00001   0.00004   0.00007   0.00016   0.00034
     Eigenvalues ---    0.00056   0.00062   0.00083   0.00154   0.00247
     Eigenvalues ---    0.00311   0.00377   0.00739   0.00783   0.01043
     Eigenvalues ---    0.01383   0.01860   0.02120   0.02419   0.02854
     Eigenvalues ---    0.02913   0.03595   0.03829   0.04609   0.04677
     Eigenvalues ---    0.04846   0.04881   0.05155   0.06072   0.06757
     Eigenvalues ---    0.07228   0.07303   0.08534   0.08819   0.10046
     Eigenvalues ---    0.10515   0.10993   0.11526   0.12535   0.12815
     Eigenvalues ---    0.13431   0.14974   0.15931   0.16298   0.16854
     Eigenvalues ---    0.18100   0.19692   0.20592   0.21776   0.23758
     Eigenvalues ---    0.25409   0.28055   0.34492   0.41049   0.44795
     Eigenvalues ---    0.50212   0.61230   0.64049   0.64858   0.65730
     Eigenvalues ---    0.67651   0.70094   0.70607   0.73275   0.80083
     Eigenvalues ---    0.82874   0.86310   0.92097   0.97885   1.01385
     Eigenvalues ---    1.10823   1.46038
 RFO step:  Lambda=-4.32360408D-04 EMin= 1.19934590D-05
 Linear search not attempted -- first point.
 Maximum step size (   0.300) exceeded in Quadratic search.
    -- Step size scaled by   0.500
 Variable       Old X    -DE/DX   Delta X   Delta X   Delta X     New X
                                 (Linear)    (Quad)   (Total)
    X1       -8.87130  -0.00000   0.00000   0.00000   0.00000  -8.87130
    Y1       -4.77894  -0.00000   0.00000   0.00000   0.00000  -4.77894
    Z1        4.39610  -0.00000   0.00000   0.00000   0.00000   4.39610
    X2       -8.69278  -0.00000   0.00000   0.00000   0.00000  -8.69278
    Y2       -1.76072  -0.00000   0.00000   0.00000   0.00000  -1.76072
    Z2        6.86228  -0.00000   0.00000   0.00000   0.00000   6.86228
    X3       -4.42681  -0.00007   0.00000  -0.00024  -0.00024  -4.42705
    Y3       -1.63775   0.00002   0.00000  -0.00033  -0.00033  -1.63808
    Z3        6.68357   0.00004   0.00000  -0.00042  -0.00042   6.68315
    X4       -7.12691  -0.00000   0.00000   0.00000   0.00000  -7.12691
    Y4       -2.41835  -0.00000   0.00000   0.00000   0.00000  -2.41835
    Z4        1.56513  -0.00000   0.00000   0.00000   0.00000   1.56513
    X5       -2.88290  -0.00013   0.00000   0.00038   0.00038  -2.88252
    Y5       -2.09390   0.00001   0.00000  -0.00071  -0.00071  -2.09461
    Z5        1.30382  -0.00002   0.00000  -0.00169  -0.00169   1.30213
    X6       -6.54077  -0.00000   0.00000   0.00000   0.00000  -6.54077
    Y6       -0.88593  -0.00000   0.00000   0.00000   0.00000  -0.88593
    Z6        7.45070  -0.00000   0.00000   0.00000   0.00000   7.45070
    X7       -5.10895  -0.00000   0.00000   0.00000   0.00000  -5.10895
    Y7       -1.59236  -0.00000   0.00000   0.00000   0.00000  -1.59236
    Z7        0.60706  -0.00000   0.00000   0.00000   0.00000   0.60706
    X8       -2.62218   0.00019   0.00000   0.00526   0.00526  -2.61692
    Y8       -4.59052   0.00005   0.00000   0.00273   0.00273  -4.58779
    Z8        4.20217  -0.00006   0.00000  -0.00022  -0.00022   4.20196
    X9       -4.31230  -0.00007   0.00000   0.00009   0.00009  -4.31221
    Y9       -7.54200  -0.00004   0.00000   0.00018   0.00018  -7.54183
    Z9        1.84848  -0.00002   0.00000  -0.00032  -0.00032   1.84816
   X10       -8.57814  -0.00000   0.00000   0.00000   0.00000  -8.57814
   Y10       -7.77728  -0.00000   0.00000   0.00000   0.00000  -7.77728
   Z10        1.91665  -0.00000   0.00000   0.00000   0.00000   1.91665
   X11       -2.51846  -0.00007   0.00000   0.00019   0.00019  -2.51826
   Y11       -6.94750  -0.00004   0.00000  -0.00012  -0.00012  -6.94763
   Z11        7.18641   0.00004   0.00000  -0.00133  -0.00133   7.18508
   X12       -6.79018  -0.00000   0.00000   0.00000   0.00000  -6.79018
   Y12       -6.98145  -0.00000   0.00000   0.00000   0.00000  -6.98145
   Z12        7.12537  -0.00000   0.00000   0.00000   0.00000   7.12537
   X13       -6.39654  -0.00000   0.00000   0.00000   0.00000  -6.39654
   Y13       -8.47500  -0.00000   0.00000   0.00000   0.00000  -8.47500
   Z13        1.21201  -0.00000   0.00000   0.00000   0.00000   1.21201
   X14       -4.66305  -0.00000   0.00000   0.00000   0.00000  -4.66305
   Y14       -7.63753  -0.00000   0.00000   0.00000   0.00000  -7.63753
   Z14        7.97226  -0.00000   0.00000   0.00000   0.00000   7.97226
   X15       -6.52977  -0.00000   0.00000   0.00000   0.00000  -6.52977
   Y15        0.72534  -0.00000   0.00000   0.00000   0.00000   0.72534
   Z15        8.77271  -0.00000   0.00000   0.00000   0.00000   8.77271
   X16       -5.27373  -0.00000   0.00000   0.00000   0.00000  -5.27373
   Y16       -0.27619  -0.00000   0.00000   0.00000   0.00000  -0.27619
   Z16       -0.99695  -0.00000   0.00000   0.00000   0.00000  -0.99695
   X17       -6.32498  -0.00000   0.00000   0.00000   0.00000  -6.32498
   Y17      -10.08270  -0.00000   0.00000   0.00000   0.00000 -10.08270
   Z17       -0.11244  -0.00000   0.00000   0.00000   0.00000  -0.11244
   X18       -4.63355  -0.00000   0.00000   0.00000   0.00000  -4.63355
   Y18       -8.95827  -0.00000   0.00000   0.00000   0.00000  -8.95827
   Z18        9.58071  -0.00000   0.00000   0.00000   0.00000   9.58071
   X19      -14.23690  -0.00000   0.00000   0.00000   0.00000 -14.23690
   Y19       -3.30988  -0.00000   0.00000   0.00000   0.00000  -3.30988
   Z19        5.94204  -0.00000   0.00000   0.00000   0.00000   5.94204
   X20      -16.86616  -0.00000   0.00000   0.00000   0.00000 -16.86616
   Y20       -3.36328  -0.00000   0.00000   0.00000   0.00000  -3.36328
   Z20        6.06550  -0.00000   0.00000   0.00000   0.00000   6.06550
   X21      -18.17065  -0.00000   0.00000   0.00000   0.00000 -18.17065
   Y21       -5.17382  -0.00000   0.00000   0.00000   0.00000  -5.17382
   Z21        4.65857  -0.00000   0.00000   0.00000   0.00000   4.65857
   X22      -16.79864  -0.00000   0.00000   0.00000   0.00000 -16.79864
   Y22       -6.86999  -0.00000   0.00000   0.00000   0.00000  -6.86999
   Z22        3.17539  -0.00000   0.00000   0.00000   0.00000   3.17539
   X23      -14.17165  -0.00000   0.00000   0.00000   0.00000 -14.17165
   Y23       -6.69889  -0.00000   0.00000   0.00000   0.00000  -6.69889
   Z23        3.14927  -0.00000   0.00000   0.00000   0.00000   3.14927
   X24      -12.91531  -0.00000   0.00000   0.00000   0.00000 -12.91531
   Y24       -4.94935  -0.00000   0.00000   0.00000   0.00000  -4.94935
   Z24        4.50899  -0.00000   0.00000   0.00000   0.00000   4.50899
   X25      -20.22042  -0.00000   0.00000   0.00000   0.00000 -20.22042
   Y25       -5.26143  -0.00000   0.00000   0.00000   0.00000  -5.26143
   Z25        4.71697  -0.00000   0.00000   0.00000   0.00000   4.71697
   X26      -13.12027  -0.00000   0.00000   0.00000   0.00000 -13.12027
   Y26       -1.94712  -0.00000   0.00000   0.00000   0.00000  -1.94712
   Z26        6.99214  -0.00000   0.00000   0.00000   0.00000   6.99214
   X27      -17.85649  -0.00000   0.00000   0.00000   0.00000 -17.85649
   Y27       -2.00886  -0.00000   0.00000   0.00000   0.00000  -2.00886
   Z27        7.24314  -0.00000   0.00000   0.00000   0.00000   7.24314
   X28      -17.73520  -0.00000   0.00000   0.00000   0.00000 -17.73520
   Y28       -8.30676  -0.00000   0.00000   0.00000   0.00000  -8.30676
   Z28        2.05265  -0.00000   0.00000   0.00000   0.00000   2.05265
   X29      -13.00437  -0.00000   0.00000   0.00000   0.00000 -13.00437
   Y29       -7.96424  -0.00000   0.00000   0.00000   0.00000  -7.96424
   Z29        2.03436  -0.00000   0.00000   0.00000   0.00000   2.03436
   X30        0.01199   0.00002   0.00000   0.01280   0.01280   0.02479
   Y30        2.54134   0.00009   0.00000   0.02814   0.02814   2.56948
   Z30       12.89028  -0.00011   0.00000  -0.01918  -0.01918  12.87110
   X31        1.82431   0.00001   0.00000   0.01547   0.01547   1.83978
   Y31        2.20104   0.00001   0.00000   0.01316   0.01316   2.21420
   Z31       11.16614  -0.00004   0.00000  -0.01336  -0.01336  11.15278
   X32        1.38204   0.00013   0.00000   0.02320   0.02320   1.40523
   Y32        2.08127  -0.00005   0.00000   0.01666   0.01666   2.09793
   Z32        8.36702  -0.00012   0.00000  -0.01458  -0.01458   8.35243
   X33        2.54556  -0.00002   0.00000   0.00902   0.00902   2.55458
   Y33       -0.13653   0.00003   0.00000   0.00840   0.00840  -0.12813
   Z33        7.40233   0.00008   0.00000  -0.01189  -0.01189   7.39044
   X34        2.57089   0.00011   0.00000   0.01543   0.01543   2.58632
   Y34       -0.22069   0.00000   0.00000   0.01249   0.01249  -0.20820
   Z34        4.70379  -0.00017   0.00000  -0.01213  -0.01213   4.69166
   X35        3.34796   0.00005   0.00000   0.01185   0.01185   3.35982
   Y35       -2.82359   0.00003   0.00000   0.01285   0.01285  -2.81074
   Z35        3.90408  -0.00013   0.00000  -0.01449  -0.01449   3.88959
   X36        2.72717   0.00012   0.00000   0.00978   0.00978   2.73695
   Y36       -3.78297   0.00009   0.00000   0.02057   0.02057  -3.76241
   Z36        1.40114  -0.00014   0.00000  -0.01668  -0.01668   1.38446
   X37        1.36239  -0.00018   0.00000   0.00841   0.00841   1.37079
   Y37       -4.74971  -0.00012   0.00000   0.01483   0.01483  -4.73488
   Z37        3.64899   0.00009   0.00000  -0.02352  -0.02352   3.62547
   X38        0.44125  -0.00001   0.00000   0.00728   0.00728   0.44854
   Y38        2.66631   0.00000   0.00000   0.02499   0.02499   2.69129
   Z38       14.89466  -0.00000   0.00000  -0.01778  -0.01778  14.87687
   X39       -1.96675   0.00005   0.00000   0.01570   0.01570  -1.95105
   Y39        2.69007   0.00001   0.00000   0.04362   0.04362   2.73369
   Z39       12.35297  -0.00001   0.00000  -0.02544  -0.02544  12.32753
   X40        3.78895  -0.00004   0.00000   0.01204   0.01204   3.80099
   Y40        2.00889  -0.00001   0.00000  -0.00235  -0.00235   2.00654
   Z40       11.75415  -0.00001   0.00000  -0.00725  -0.00725  11.74689
   X41        2.22632   0.00000   0.00000   0.03789   0.03789   2.26421
   Y41        3.76290  -0.00001   0.00000   0.01035   0.01035   3.77325
   Z41        7.45959   0.00001   0.00000  -0.01208  -0.01208   7.44751
   X42       -0.65318   0.00002   0.00000   0.02408   0.02408  -0.62910
   Y42        2.07087   0.00001   0.00000   0.03223   0.03223   2.10311
   Z42        7.93848  -0.00000   0.00000  -0.01993  -0.01993   7.91855
   X43        3.94681   0.00000   0.00000   0.02018   0.02018   3.96699
   Y43        1.12737  -0.00004   0.00000   0.00842   0.00842   1.13579
   Z43        3.91821  -0.00004   0.00000  -0.01054  -0.01054   3.90767
   X44        0.69921   0.00001   0.00000   0.01737   0.01737   0.71659
   Y44        0.23163  -0.00000   0.00000   0.01655   0.01655   0.24818
   Z44        3.92788   0.00000   0.00000  -0.01491  -0.01491   3.91297
   X45        5.00555   0.00000   0.00000   0.01001   0.01001   5.01556
   Y45       -3.57205   0.00000   0.00000   0.00723   0.00723  -3.56482
   Z45        4.86320  -0.00002   0.00000  -0.01607  -0.01607   4.84713
   X46        3.94774   0.00000   0.00000   0.00869   0.00869   3.95643
   Y46       -5.17712   0.00003   0.00000   0.02188   0.02188  -5.15524
   Z46        0.52712  -0.00001   0.00000  -0.02136  -0.02136   0.50576
   X47        1.58318   0.00005   0.00000   0.01321   0.01321   1.59639
   Y47       -2.63977   0.00001   0.00000   0.02866   0.02866  -2.61111
   Z47        0.14720  -0.00001   0.00000  -0.01310  -0.01310   0.13410
   X48       17.61915  -0.00000   0.00000   0.00000   0.00000  17.61915
   Y48       14.88838  -0.00000   0.00000   0.00000   0.00000  14.88838
   Z48      -17.79806  -0.00000   0.00000   0.00000   0.00000 -17.79806
   X49       16.58271  -0.00000   0.00000   0.00000   0.00000  16.58271
   Y49       16.37692  -0.00000   0.00000   0.00000   0.00000  16.37692
   Z49      -20.08303  -0.00000   0.00000   0.00000   0.00000 -20.08303
   X50       13.73912  -0.00000   0.00000   0.00000   0.00000  13.73912
[...]
 .,0.,0.,0.,0.,0.,0.,0.,0.,0.,0.,0.,0.,0.,0.,0.,0.,0.,0.,0.,0.,0.,0.,0.
 ,0.,0.,0.,0.,0.,0.,0.,0.,0.,0.,0.,0.,0.,0.,0.,0.,0.,0.,0.,0.,0.,0.,0.,
 0.,0.,0.,0.,0.,0.,0.,0.,0.,0.,0.,0.,0.,0.,0.,0.,0.,0.,0.,0.,0.,0.,0.,0
 .,0.,0.,0.,0.,0.,0.,0.,0.,0.,0.,0.,0.,0.,0.,0.,0.,0.,0.,0.,0.,0.,0.,0.
 ,0.,0.,0.,0.,0.,0.,0.,0.,0.,0.,0.,0.,0.,0.,0.,0.,0.,0.,0.,0.,0.,0.,0.,
 0.,0.,0.,0.,0.,0.,0.,0.,0.,0.,0.,0.,0.,0.,0.,0.,0.,0.,0.,0.,0.,0.,0.,0
 .,0.,0.,0.,0.,0.,0.,0.,0.,0.,0.,0.,0.,0.,0.,0.,0.,0.,0.,0.,0.,0.,0.,0.
 ,0.,0.,0.,0.,0.,0.,0.,0.,0.,0.,0.,0.,0.,0.,0.,0.,0.,0.,0.,0.,0.,0.,0.,
 0.,0.,0.,0.,0.,0.,0.,0.,0.,0.,0.,0.,0.,0.,0.,0.,0.,0.,0.,0.,0.,0.,0.,0
 .,0.,0.,0.,0.,0.,0.,0.,0.,0.,0.,0.,0.,0.,0.,0.,0.,0.,0.,0.,0.,0.,0.,0.
 ,0.,0.,0.,0.,0.,0.,0.,0.,0.,0.,0.,0.,0.,0.,0.,0.,0.,0.,0.,0.,0.,0.,0.,
 0.,0.,0.,0.,0.,0.,0.,0.,0.,0.,0.,0.,0.,0.,0.,0.,0.,0.,0.,0.,0.,0.,0.,0
 .,0.,0.,0.,0.,0.,0.,0.,0.,0.,0.,0.,0.,0.,0.,0.,0.,0.,0.,0.,0.,0.,0.,0.
 ,0.,0.,0.,0.,0.,0.,0.,0.,0.,0.,0.,0.,0.,0.,0.,0.,0.,0.,0.,0.,0.,0.,0.,
 0.,0.,0.,0.,0.,0.,0.,0.,0.,0.,0.,0.,0.,0.,0.,0.,0.,0.,0.,0.,0.,0.,0.,0
 .,0.,0.,0.,0.,0.,0.,0.,0.,0.,0.,0.,0.,0.,0.,0.,0.,0.,0.,0.,0.,0.,0.,0.
 ,0.,0.,0.,0.,0.,0.,0.,0.,0.,0.,0.,0.,0.,0.,0.,0.,0.,0.,0.,0.,0.,0.,0.,
 0.,0.,0.,0.,0.,0.,0.,0.,0.,0.,0.,0.,0.,0.,0.,0.,0.,0.,0.,0.,0.,0.,0.,0
 .,0.,0.,0.,0.,0.,0.,0.,0.,0.,0.,0.,0.,0.,0.,0.,0.,0.,0.,0.,0.,0.,0.,0.
 ,0.,0.,0.,0.,0.,0.,0.,0.,0.,0.,0.,0.,0.,0.,0.,0.,0.,0.,0.,0.,0.,0.,0.,
 0.,0.,0.,0.,0.,0.,0.,0.,0.,0.,0.,0.,0.,0.,0.,0.,0.,0.,0.,0.,0.,0.,0.,0
 .,0.,0.,0.,0.,0.,0.,0.,0.,0.,0.,0.,0.,0.,0.,0.,0.,0.,0.,0.,0.,0.,0.,0.
 ,0.,0.,0.,0.,0.,0.,0.,0.,0.,0.,0.,0.,0.,0.,0.,0.,0.,0.,0.,0.,0.,0.,0.,
 0.,0.,0.,0.,0.,0.,0.,0.,0.,0.,0.,0.,0.,0.,0.,0.,0.,0.,0.,0.,0.,0.,0.,0
 .,0.,0.,0.,0.,0.,0.,0.,0.,0.,0.,0.,0.,0.,0.,0.,0.,0.,0.,0.,0.,0.,0.,0.
 ,0.,0.,0.,0.,0.,0.,0.,0.,0.,0.,0.,0.,0.,0.,0.,0.,0.,0.,0.,0.,0.,0.,0.,
 0.,0.,0.,0.,0.,0.,0.,0.,0.,0.,0.,0.,0.,0.,0.,0.,0.,0.,0.,0.,0.,0.,0.,0
 .,0.,0.,0.,0.,0.,0.,0.,0.,0.,0.,0.,0.,0.,0.,0.,0.,0.,0.,0.,0.,0.,0.,0.
 ,0.,0.,0.,0.,0.,0.,0.,0.,0.,0.,0.,0.,0.,0.,0.,0.,0.,0.,0.,0.,0.,0.,0.,
 0.,0.,0.,0.,0.,0.,0.,0.,0.,0.,0.,0.,0.,0.,0.,0.,0.,0.,0.,0.,0.,0.,0.,0
 .,0.,0.,0.,0.,0.,0.,0.,0.,0.,0.,0.,0.,0.,0.,0.,0.,0.,0.,0.,0.,0.,0.,0.
 ,0.,0.,0.,0.,0.,0.,0.,0.,0.,0.,0.,0.,0.,0.,0.,0.,0.,0.,0.,0.,0.,0.,0.,
 0.,0.,0.,0.,0.,0.,0.,0.,0.,0.,0.,0.,0.,0.,0.,0.,0.,0.,0.,0.,0.,0.,0.,0
 .,0.,0.,0.,0.,0.,0.,0.,0.,0.,0.,0.,0.,0.,0.,0.,0.,0.,0.,0.,0.,0.,0.,0.
 ,0.,0.,0.,0.,0.,0.,0.,0.,0.,0.,0.,0.,0.,0.,0.,0.,0.,0.,0.,0.,0.,0.,0.,
 0.,0.,0.,0.,0.,0.,0.,0.,0.,0.,0.,0.,0.,0.,0.,0.,0.,0.,0.,0.,0.,0.,0.,0
 .,0.,0.,0.,0.,0.,0.,0.,0.,0.,0.,0.,0.,0.,0.,0.,0.,0.,0.,0.,0.,0.,0.,0.
 ,0.,0.,0.,0.,0.,0.,0.,0.,0.,0.,0.,0.,0.,0.,0.,0.,0.,0.,0.,0.,0.,0.,0.,
 0.,0.,0.,0.,0.,0.,0.,0.,0.,0.,0.,0.,0.,0.,0.,0.,0.,0.,0.,0.,0.,0.,0.,0
 .,0.,0.,0.,0.,0.,0.,0.,0.,0.,0.,0.,0.,0.,0.,0.,0.,0.,0.,0.,0.,0.,0.,0.
 ,0.,0.,0.,0.,0.,0.,0.,0.,0.,0.,0.,0.,0.,0.,0.,0.,0.,0.,0.,0.,0.,0.,0.,
 0.,0.,0.,0.,0.,0.,0.,0.,0.,0.,0.,0.,0.,0.,0.,0.,0.,0.,0.,0.,0.,0.,0.,0
 .,0.,0.,0.,0.,0.,0.,0.,0.,0.,0.,0.,0.,0.,0.,0.,0.,0.,0.,0.,0.,0.,0.,0.
 ,0.,0.,0.,0.,0.,0.,0.,0.,0.,0.,0.,0.,0.,0.,0.,0.,0.,0.,0.,0.,0.,0.,0.,
 0.,0.,0.,0.,0.,0.,0.,0.,0.,0.,0.,0.,0.,0.,0.,0.,0.,0.,0.,0.,0.,0.,0.,0
 .,0.,0.,0.,0.,0.,0.,0.,0.,0.,0.,0.,0.,0.,0.,0.,0.,0.,0.,0.,0.,0.,0.,0.
 ,0.,0.,0.,0.,0.,0.,0.,0.,0.,0.,0.,0.,0.,0.,0.,0.,0.,0.,0.,0.,0.,0.,0.,
 0.,0.,0.,0.,0.,0.,0.,0.,0.,0.,0.,0.,0.,0.,0.,0.,0.,0.,0.,0.,0.,0.,0.,0
 .,0.,0.,0.,0.,0.,0.,0.,0.,0.,0.,0.,0.,0.,0.,0.,0.,0.,0.,0.,0.,0.,0.,0.
 ,0.,0.,0.,0.,0.,0.,0.,0.,0.,0.,0.,0.,0.,0.,0.,0.,0.,0.,0.,0.,0.,0.,0.,
 0.,0.,0.,0.,0.,0.,0.,0.,0.,0.,0.,0.,0.,0.,0.,0.,0.,0.,0.,0.,0.,0.,0.,0
 .,0.,0.,0.,0.,0.,0.,0.,0.,0.,0.,0.,0.,0.,0.,0.,0.,0.,0.,0.,0.,0.,0.,0.
 ,0.,0.,0.,0.,0.,0.,0.,0.,0.,0.,0.,0.,0.,0.,0.,0.,0.,0.,0.,0.,0.,0.,0.,
 0.,0.,0.,0.,0.,0.,0.,0.,0.,0.,0.,0.,0.,0.,0.,0.,0.,0.,0.,0.,0.,0.,0.,0
 .,0.,0.,0.,0.,0.,0.,0.,0.,0.,0.,0.,0.,0.,0.,0.,0.,0.,0.,0.,0.,0.,0.,0.
 ,0.,0.,0.,0.,0.,0.,0.,0.,0.,0.,0.,0.,0.,0.,0.,0.,0.,0.,0.,0.,0.,0.,0.,
 0.,0.,0.,0.,0.,0.,0.,0.,0.,0.,0.,0.,0.,0.,0.,0.,0.,0.,0.,0.,0.,0.,0.,0
 .,0.,0.,0.,0.,0.,0.,0.,0.,0.,0.,0.,0.,0.,0.,0.,0.,0.,0.,0.,0.,0.,0.,0.
 ,0.,0.,0.,0.,0.,0.,0.,0.,0.,0.,0.,0.,0.,0.,0.,0.,0.,0.,0.,0.,0.,0.,0.,
 0.,0.,0.,0.,0.,0.,0.,0.,0.,0.,0.,0.,0.,0.,0.,0.,0.,0.,0.,0.,0.,0.,0.,0
 .,0.,0.,0.,0.,0.,0.,0.,0.,0.,0.,0.,0.,0.,0.,0.,0.,0.,0.,0.,0.,0.,0.,0.
 ,0.,0.,0.,0.,0.,0.,0.,0.,0.,0.,0.,0.,0.,0.,0.,0.,0.,0.,0.,0.,0.,0.,0.,
 0.,0.,0.,0.,0.,0.,0.,0.,0.,0.,0.,0.,0.,0.,0.,0.,0.,0.,0.,0.,0.,0.,0.,0
 .,0.,0.,0.,0.,0.,0.,0.,0.,0.,0.,0.,0.,0.,0.,0.,0.,0.,0.,0.,0.,0.,0.,0.
 ,0.,0.,0.,0.,0.,0.,0.,0.,0.,0.,0.,0.,0.,0.,0.,0.,0.,0.,0.,0.,0.,0.,0.,
 0.,0.,0.,0.,0.,0.,0.,0.,0.,0.,0.,0.,0.,0.,0.,0.,0.,0.,0.,0.,0.,0.,0.,0
 .,0.,0.,0.,0.,0.,0.,0.,0.,0.,0.,0.,0.,0.,0.,0.,0.,0.,0.,0.,0.,0.,0.,0.
 ,0.,0.,0.,0.,0.,0.,0.,0.,0.,0.,0.,0.,0.,0.,0.,0.,0.,0.,0.,0.,0.,0.,0.,
 0.,0.,0.,0.,0.,0.,0.,0.,0.,0.,0.,0.,0.,0.,0.,0.,0.,0.,0.,0.,0.,0.,0.,0
 .,0.,0.,0.,0.,0.,0.,0.,0.,0.,0.,0.,0.,0.,0.,0.,0.,0.,0.,0.,0.,0.,0.,0.
 ,0.,0.,0.,0.,0.,0.,0.,0.,0.,0.,0.,0.,0.,0.,0.,0.,0.,0.,0.,0.,0.,0.,0.,
 0.,0.,0.,0.,0.,0.,0.,0.,0.,0.,0.,0.,0.,0.,0.,0.,0.,0.,0.,0.,0.,0.,0.,0
 .,0.,0.,0.,0.,0.,0.,0.,0.,0.,0.,0.,0.,0.,0.,0.,0.,0.,0.,0.,0.,0.,0.,0.
 ,0.,0.,0.,0.,0.,0.,0.,0.,0.,0.,0.,0.,0.,0.,0.,0.,0.,0.,0.,0.,0.,0.,0.,
 0.,0.,0.,0.,0.,0.,0.,0.,0.,0.,0.,0.,0.,0.,0.,0.,0.,0.,0.,0.,0.,0.,0.,0
 .,0.,0.,0.,0.,0.,0.,0.,0.,0.,0.,0.,0.,0.,0.,0.,0.,0.,0.,0.,0.,0.,0.,0.
 ,0.,0.,0.,0.,0.,0.,0.,0.,0.,0.,0.,0.,0.,0.,0.,0.,0.,0.,0.,0.,0.,0.,0.,
 0.,0.,0.,0.,0.,0.,0.,0.,0.,0.,0.,0.,0.,0.,0.,0.,0.,0.,0.,0.,0.,0.,0.,0
 .,0.,0.,0.,0.,0.,0.,0.,0.,0.,0.,0.,0.,0.,0.,0.,0.,0.,0.,0.,0.,0.,0.,0.
 ,0.,0.,0.,0.,0.,0.,0.,0.,0.,0.,0.,0.,0.,0.,0.,0.,0.,0.,0.,0.,0.,0.,0.,
 0.,0.,0.,0.,0.,0.,0.,0.,0.,0.,0.,0.,0.,0.,0.,0.,0.,0.,0.,0.,0.,0.,0.,0
 .,0.,0.,0.,0.,0.,0.,0.,0.,0.,0.,0.,0.,0.,0.,0.,0.,0.,0.,0.,0.,0.,0.,0.
 ,0.,0.,0.,0.,0.,0.,0.,0.,0.,0.,0.,0.,0.,0.,0.,0.,0.,0.,0.,0.,0.,0.,0.,
 0.,0.,0.,0.,0.,0.,0.,0.,0.,0.,0.,0.,0.,0.,0.,0.,0.,0.,0.,0.,0.,0.,0.,0
 .,0.,0.,0.,0.,0.,0.,0.,0.,0.,0.,0.,0.,0.,0.,0.,0.,0.,0.,0.,0.,0.,0.,0.
 ,0.,0.,0.,0.,0.,0.,0.,0.,0.,0.,0.,0.,0.,0.,0.,0.,0.,0.,0.,0.,0.,0.,0.,
 0.,0.,0.,0.,0.,0.,0.,0.,0.,0.,0.,0.,0.,0.,0.,0.,0.,0.,0.,0.,0.,0.,0.,0
 .,0.,0.,0.,0.,0.,0.,0.,0.,0.,0.,0.,0.,0.,0.,0.,0.,0.,0.,0.,0.,0.,0.,0.
 ,0.,0.,0.,0.,0.,0.,0.,0.,0.,0.,0.,0.,0.,0.,0.,0.,0.,0.,0.,0.,0.,0.,0.,
 0.,0.,0.,0.,0.,0.,0.,0.,0.,0.,0.,0.,0.,0.,0.,0.,0.,0.,0.,0.,0.,0.,0.,0
 .,0.,0.,0.,0.,0.,0.,0.,0.,0.,0.,0.,0.,0.,0.,0.,0.,0.,0.,0.,0.,0.,0.,0.
 ,0.,0.,0.,0.,0.,0.,0.,0.,0.,0.,0.,0.,0.,0.,0.,0.,0.,0.,0.,0.,0.,0.,0.,
 0.,0.,0.,0.,0.,0.,0.,0.,0.,0.,0.,0.,0.,0.,0.,0.,0.,0.,0.,0.,0.,0.,0.,0
 .,0.,0.,0.,0.,0.,0.,0.,0.,0.,0.,0.,0.,0.,0.,0.,0.,0.,0.,0.,0.,0.,0.,0.
 ,0.,0.,0.,0.,0.,0.,0.,0.,0.,0.,0.,0.,0.,0.,0.,0.,0.,0.,0.,0.,0.,0.,0.,
 0.,0.,0.,0.,0.,0.,0.,0.,0.,0.,0.,0.,0.,0.,0.,0.,0.,0.,0.,0.,0.,0.,0.,0
 .,0.,0.,0.,0.,0.,0.,0.,0.,0.,0.,0.,0.,0.,0.,0.,0.,0.,0.,0.,0.,0.,0.,0.
 ,0.,0.,0.,0.,0.,0.,0.,0.,0.,0.,0.,0.,0.,0.,0.,0.,0.,0.,0.,0.,0.,0.,0.,
 0.,0.,0.,0.,0.,0.,0.,0.,0.,0.,0.,0.,0.,0.,0.,0.,0.,0.,0.,0.,0.,0.,0.,0
 .,0.,0.,0.,0.,0.,0.,0.,0.,0.,0.,0.,0.,0.,0.,0.,0.,0.,0.,0.,0.,0.,0.,0.
 ,0.,0.,0.,0.,0.,0.,0.,0.,0.,0.,0.,0.,0.,0.,0.,0.,0.,0.,0.,0.,0.,0.,0.,
 0.,0.,0.,0.,0.,0.,0.,0.,0.,0.,0.,0.,0.,0.,0.,0.,0.,0.,0.,0.,0.,0.,0.,0
 .,0.,0.,0.,0.,0.,0.,0.,0.,0.,0.,0.,0.,0.,0.,0.,0.,0.,0.,0.,0.,0.,0.,0.
 ,0.,0.,0.,0.,0.,0.,0.,0.,0.,0.,0.,0.,0.,0.,0.,0.,0.,0.,0.,0.,0.,0.,0.,
 0.,0.,0.,0.,0.,0.,0.,0.,0.,0.,0.,0.,0.,0.,0.,0.,0.,0.,0.,0.,0.,0.,0.,0
 .,0.,0.,0.,0.,0.,0.,0.,0.,0.,0.,0.,0.,0.,0.,0.,0.,0.,0.,0.,0.,0.,0.,0.
 ,0.,0.,0.,0.,0.,0.,0.,0.,0.,0.,0.,0.,0.,0.,0.,0.,0.,0.,0.,0.,0.,0.,0.,
 0.,0.,0.,0.,0.,0.,0.,0.,0.,0.,0.,0.,0.,0.,0.,0.,0.,0.,0.,0.,0.,0.,0.,0
 .,0.,0.,0.,0.,0.,0.,0.,0.,0.,0.,0.,0.,0.,0.,0.,0.,0.,0.,0.,0.,0.,0.,0.
 ,0.,0.,0.,0.,0.,0.,0.,0.,0.,0.,0.,0.,0.,0.,0.,0.,0.,0.,0.,0.,0.,0.,0.,
 0.,0.,0.,0.,0.,0.,0.,0.,0.,0.,0.,0.,0.,0.,0.,0.,0.,0.,0.,0.,0.,0.,0.,0
 .,0.,0.,0.,0.,0.,0.,0.,0.,0.,0.,0.,0.,0.,0.,0.,0.,0.,0.,0.,0.,0.,0.,0.
 ,0.,0.,0.,0.,0.,0.,0.,0.,0.,0.,0.,0.,0.,0.,0.,0.,0.,0.,0.,0.,0.,0.,0.,
 0.,0.,0.,0.,0.,0.,0.,0.,0.,0.,0.,0.,0.,0.,0.,0.,0.,0.,0.,0.,0.,0.,0.,0
 .,0.,0.,0.,0.,0.,0.,0.,0.,0.,0.,0.,0.,0.,0.,0.,0.,0.,0.,0.,0.,0.,0.,0.
 ,0.,0.,0.,0.,0.,0.,0.,0.,0.,0.,0.,0.,0.,0.,0.,0.,0.,0.,0.,0.,0.,0.,0.,
 0.,0.,0.,0.,0.,0.,0.,0.,0.,0.,0.,0.,0.,0.,0.,0.,0.,0.,0.,0.,0.,0.,0.,0
 .,0.,0.,0.,0.,0.,0.,0.,0.,0.,0.,0.,0.,0.,0.,0.,0.,0.,0.,0.,0.,0.,0.,0.
 ,0.,0.,0.,0.,0.,0.,0.,0.,0.,0.,0.,0.,0.,0.,0.,0.,0.,0.,0.,0.,0.,0.,0.,
 0.,0.,0.,0.,0.,0.,0.,0.,0.,0.,0.,0.,0.,0.,0.,0.,0.,0.,0.,0.,0.,0.,0.,0
 .,0.,0.,0.,0.,0.,0.,0.,0.,0.,0.,0.,0.,0.,0.,0.,0.,0.,0.,0.,0.,0.,0.,0.
 ,0.,0.,0.,0.,0.,0.,0.,0.,0.,0.,0.,0.,0.,0.,0.,0.,0.,0.,0.,0.,0.,0.,0.,
 0.,0.,0.,0.,0.,0.,0.,0.,0.,0.,0.,0.,0.,0.,0.,0.,0.,0.,0.,0.,0.,0.,0.,0
 .,0.,0.,0.,0.,0.,0.,0.,0.,0.,0.,0.,0.,0.,0.,0.,0.,0.,0.,0.,0.,0.,0.,0.
 ,0.,0.,0.,0.,0.,0.,0.,0.,0.,0.,0.,0.,0.,0.,0.,0.,0.,0.,0.,0.,0.,0.,0.,
 0.,0.,0.,0.,0.,0.,0.,0.,0.,0.,0.,0.,0.,0.,0.,0.,0.,0.,0.,0.,0.,0.,0.,0
 .,0.,0.,0.,0.,0.,0.,0.,0.,0.,0.,0.,0.,0.,0.,0.,0.,0.,0.,0.,0.,0.,0.,0.
 ,0.,0.,0.,0.,0.,0.,0.,0.,0.,0.,0.,0.,0.,0.,0.,0.,0.,0.,0.,0.,0.,0.,0.,
 0.,0.,0.,0.,0.,0.,0.,0.,0.,0.,0.,0.,0.,0.,0.,0.,0.,0.,0.,0.,0.,0.,0.,0
 .,0.,0.,0.,0.,0.,0.,0.,0.,0.,0.,0.,0.,0.,0.,0.,0.,0.,0.,0.,0.,0.,0.,0.
 ,0.,0.,0.,0.,0.,0.,0.,0.,0.,0.,0.,0.,0.,0.,0.,0.,0.,0.,0.,0.,0.,0.,0.,
 0.,0.,0.,0.,0.,0.,0.,0.,0.,0.,0.,0.,0.,0.,0.,0.,0.,0.,0.,0.,0.,0.,0.,0
 .,0.,0.,0.,0.,0.,0.,0.,0.,0.,0.,0.,0.,0.,0.,0.,0.,0.,0.,0.,0.,0.,0.,0.
 ,0.,0.,0.,0.,0.,0.,0.,0.,0.,0.,0.,0.,0.,0.,0.,0.,0.,0.,0.,0.,0.,0.,0.,
 0.,0.,0.,0.,0.,0.,0.,0.,0.,0.,0.,0.,0.,0.,0.,0.,0.,0.,0.,0.,0.,0.,0.,0
 .,0.,0.,0.,0.,0.,0.,0.,0.,0.,0.,0.,0.,0.,0.,0.,0.,0.,0.,0.,0.,0.,0.,0.
 ,0.,0.,0.,0.,0.,0.,0.,0.,0.,0.,0.,0.,0.,0.,0.,0.,0.,0.,0.,0.,0.,0.,0.,
 0.,0.,0.,0.,0.,0.,0.,0.,0.,0.,0.,0.,0.,0.,0.,0.,0.,0.,0.,0.,0.,0.,0.,0
 .,0.,0.,0.,0.,0.,0.,0.,0.,0.,0.,0.,0.,0.,0.,0.,0.,0.,0.,0.,0.,0.,0.,0.
 ,0.,0.,0.,0.,0.,0.,0.,0.,0.,0.,0.,0.,0.,0.,0.,0.,0.,0.,0.,0.,0.,0.,0.,
 0.,0.,0.,0.,0.,0.,0.,0.,0.,0.,0.,0.,0.,0.,0.,0.,0.,0.,0.,0.,0.,0.,0.,0
 .,0.,0.,0.,0.,0.,0.,0.,0.,0.,0.,0.,0.,0.,0.,0.,0.,0.,0.,0.,0.,0.,0.,0.
 ,0.,0.,0.,0.,0.,0.,0.,0.,0.,0.,0.,0.,0.,0.,0.,0.,0.,0.,0.,0.,0.,0.,0.,
 0.,0.,0.,0.,0.,0.,0.,0.,0.,0.,0.,0.,0.,0.,0.,0.,0.,0.,0.,0.,0.,0.,0.,0
 .,0.,0.,0.,0.,0.,0.,0.,0.,0.,0.,0.,0.,0.,0.,0.,0.,0.,0.,0.,0.,0.,0.,0.
 ,0.,0.,0.,0.,0.,0.,0.,0.,0.,0.,0.,0.,0.,0.,0.,0.,0.,0.,0.,0.,0.,0.,0.,
 0.,0.,0.,0.,0.,0.,0.,0.,0.,0.,0.,0.,0.,0.,0.,0.,0.,0.,0.,0.,0.,0.,0.,0
 .,0.,0.,0.,0.,0.,0.,0.,0.,0.,0.,0.,0.,0.,0.,0.,0.,0.,0.,0.,0.,0.,0.,0.
 ,0.,0.,0.,0.,0.,0.,0.,0.,0.,0.,0.,0.,0.,0.,0.,0.,0.,0.,0.,0.,0.,0.,0.,
 0.,0.,0.,0.,0.,0.,0.,0.,0.,0.,0.,0.,0.,0.,0.,0.,0.,0.,0.,0.,0.,0.,0.,0
 .,0.,0.,0.,0.,0.,0.,0.,0.,0.,0.,0.,0.,0.,0.,0.,0.,0.,0.,0.,0.,0.,0.,0.
 ,0.,0.,0.,0.,0.,0.,0.,0.,0.,0.,0.,0.,0.,0.,0.,0.,0.,0.,0.,0.,0.,0.,0.,
 0.,0.,0.,0.,0.,0.,0.,0.,0.,0.,0.,0.,0.,0.,0.,0.,0.,0.,0.,0.,0.,0.,0.,0
 .,0.,0.,0.,0.,0.,0.,0.,0.,0.,0.,0.,0.,0.,0.,0.,0.,0.,0.,0.,0.,0.,0.,0.
 ,0.,0.,0.,0.,0.,0.,0.,0.,0.,0.,0.,0.,0.,0.,0.,0.,0.,0.,0.,0.,0.,0.,0.,
 0.,0.,0.,0.,0.,0.,0.,0.,0.,0.,0.,0.,0.,0.,0.,0.,0.,0.,0.,0.,0.,0.,0.,0
 .,0.,0.,0.,0.,0.,0.,0.,0.,0.,0.,0.,0.,0.,0.,0.,0.,0.,0.,0.,0.,0.,0.,0.
 ,0.,0.,0.,0.,0.,0.,0.,0.,0.,0.,0.,0.,0.,0.,0.,0.,0.,0.,0.,0.,0.,0.,0.,
 0.,0.,0.,0.,0.,0.,0.,0.,0.,0.,0.,0.,0.,0.,0.,0.,0.,0.,0.,0.,0.,0.,0.,0
 .,0.,0.,0.,0.,0.,0.,0.,0.,0.,0.,0.,0.,0.,0.,0.,0.,0.,0.,0.,0.,0.,0.,0.
 ,0.,0.,0.,0.,0.,0.,0.,0.,0.,0.,0.,0.,0.,0.,0.,0.,0.,0.,0.,0.,0.,0.,0.,
 0.,0.,0.,0.,0.,0.,0.,0.,0.,0.,0.,0.,0.,0.,0.,0.,0.,0.,0.,0.,0.,0.,0.,0
 .,0.,0.,0.,0.,0.,0.,0.,0.,0.,0.,0.,0.,0.,0.,0.,0.,0.,0.,0.,0.,0.,0.,0.
 ,0.,0.,0.,0.,0.,0.,0.,0.,0.,0.,0.,0.,0.,0.,0.,0.,0.,0.,0.,0.,0.,0.,0.,
 0.,0.,0.,0.,0.,0.,0.,0.,0.,0.,0.,0.,0.,0.,0.,0.,0.,0.,0.,0.,0.,0.,0.,0
 .,0.,0.,0.,0.,0.,0.,0.,0.,0.,0.,0.,0.,0.,0.,0.,0.,0.,0.,0.,0.,0.,0.,0.
 ,0.,0.,0.,0.,0.,0.,0.,0.,0.,0.,0.,0.,0.,0.,0.,0.,0.,0.,0.,0.,0.,0.,0.,
 0.,0.,0.,0.,0.,0.,0.,0.,0.,0.,0.,0.,0.,0.,0.,0.,0.,0.,0.,0.,0.,0.,0.,0
 .,0.,0.,0.,0.,0.,0.,0.,0.,0.,0.,0.,0.,0.,0.,0.,0.,0.,0.,0.,0.,0.,0.,0.
 ,0.,0.,0.,0.,0.,0.,0.,0.,0.,0.,0.,0.,0.,0.,0.,0.,0.,0.,0.,0.,0.,0.,0.,
 0.,0.,0.,0.,0.,0.,0.,0.,0.,0.,0.,0.,0.,0.,0.,0.,0.,0.,0.,0.,0.,0.,0.,0
 .,0.,0.,0.,0.,0.,0.,0.,0.,0.,0.,0.,0.,0.,0.,0.,0.,0.,0.,0.,0.,0.,0.,0.
 ,0.,0.,0.,0.,0.,0.,0.,0.,0.,0.,0.,0.,0.,0.,0.,0.,0.,0.,0.,0.,0.,0.,0.,
 0.,0.,0.,0.,0.,0.,0.,0.,0.,0.,0.,0.,0.,0.,0.,0.,0.,0.,0.,0.,0.,0.,0.,0
 .,0.,0.,0.,0.,0.,0.,0.,0.,0.,0.,0.,0.,0.,0.,0.,0.,0.,0.,0.,0.,0.,0.,0.
 ,0.,0.,0.,0.,0.,0.,0.,0.,0.,0.,0.,0.,0.,0.,0.,0.,0.,0.,0.,0.,0.,0.,0.,
 0.,0.,0.,0.,0.,0.,0.,0.,0.,0.,0.,0.,0.,0.,0.,0.,0.,0.,0.,0.,0.,0.,0.,0
 .,0.,0.,0.,0.,0.,0.,0.,0.,0.,0.,0.,0.,0.,0.,0.,0.,0.,0.,0.,0.,0.,0.,0.
 ,0.,0.,0.,0.,0.,0.,0.,0.,0.,0.,0.,0.,0.,0.,0.,0.,0.,0.,0.,0.,0.,0.,0.,
 0.,0.,0.,0.,0.,0.,0.,0.,0.,0.,0.,0.,0.,0.,0.,0.,0.,0.,0.,0.,0.,0.,0.,0
 .,0.,0.,0.,0.,0.,0.,0.,0.,0.,0.,0.,0.,0.,0.,0.,0.,0.,0.,0.,0.,0.,0.,0.
 ,0.,0.,0.,0.,0.,0.,0.,0.,0.,0.,0.,0.,0.,0.,0.,0.,0.,0.,0.,0.,0.,0.,0.,
 0.,0.,0.,0.,0.,0.,0.,0.,0.,0.,0.,0.,0.,0.,0.,0.,0.,0.,0.,0.,0.,0.,0.,0
 .,0.,0.,0.,0.,0.,0.,0.,0.,0.,0.,0.,0.,0.,0.,0.,0.,0.,0.,0.,0.,0.,0.,0.
 ,0.,0.,0.,0.,0.,0.,0.,0.,0.,0.,0.,0.,0.,0.,0.,0.,0.,0.,0.,0.,0.,0.,0.,
 0.,0.,0.,0.,0.,0.,0.,0.,0.,0.,0.,0.,0.,0.,0.,0.,0.,0.,0.,0.,0.,0.,0.,0
 .,0.,0.,0.,0.,0.,0.,0.,0.,0.,0.,0.,0.,0.,0.,0.,0.,0.,0.,0.,0.,0.,0.,0.
 ,0.,0.,0.,0.,0.,0.,0.,0.,0.,0.,0.,0.,0.,0.,0.,0.,0.,0.,0.,0.,0.,0.,0.,
 0.,0.,0.,0.,0.,0.,0.,0.,0.,0.,0.,0.,0.,0.,0.,0.,0.,0.,0.,0.,0.,0.,0.,0
 .,0.,0.,0.,0.,0.,0.,0.,0.,0.,0.,0.,0.,0.,0.,0.,0.,0.,0.,0.,0.,0.,0.,0.
 ,0.,0.,0.,0.,0.,0.,0.,0.,0.,0.,0.,0.,0.,0.,0.,0.,0.,0.,0.,0.,0.,0.,0.,
 0.,0.,0.,0.,0.,0.,0.,0.,0.,0.,0.,0.,0.,0.,0.,0.,0.,0.,0.,0.,0.,0.,0.,0
 .,0.,0.,0.,0.,0.,0.,0.,0.,0.,0.,0.,0.,0.,0.,0.,0.,0.,0.,0.,0.,0.,0.,0.
 ,0.,0.,0.,0.,0.,0.,0.,0.,0.,0.,0.,0.,0.,0.,0.,0.,0.,0.,0.,0.,0.,0.,0.,
 0.,0.,0.,0.,0.,0.,0.,0.,0.,0.,0.,0.,0.,0.,0.,0.,0.,0.,0.,0.,0.,0.,0.,0
 .,0.,0.,0.,0.,0.,0.,0.,0.,0.,0.,0.,0.,0.,0.,0.,0.,0.,0.,0.,0.,0.,0.,0.
 ,0.,0.,0.,0.,0.,0.,0.,0.,0.,0.,0.,0.,0.,0.,0.,0.,0.,0.,0.,0.,0.,0.,0.,
 0.,0.,0.,0.,0.,0.,0.,0.,0.,0.,0.,0.,0.,0.,0.,0.,0.,0.,0.,0.,0.,0.,0.,0
 .,0.,0.,0.,0.,0.,0.,0.,0.,0.,0.,0.,0.,0.,0.,0.,0.,0.,0.,0.,0.,0.,0.,0.
 ,0.,0.,0.,0.,0.,0.,0.,0.,0.,0.,0.,0.,0.,0.,0.,0.,0.,0.,0.,0.,0.,0.,0.,
 0.,0.,0.,0.,0.,0.,0.,0.,0.,0.,0.,-0.00027825,0.00005009,0.00023665,0.,
 0.,0.,-0.00063415,-0.00014843,0.00012323,0.,0.,0.,0.,0.,0.,0.00049241,
 0.00035852,-0.00043857,-0.00026907,-0.00026549,-0.00003443,0.,0.,0.,-0
 .00018409,-0.00017107,0.00020618,0.,0.,0.,0.,0.,0.,0.,0.,0.,0.,0.,0.,0
 .,0.,0.,0.,0.,0.,0.,0.,0.,0.,0.,0.,0.,0.,0.,0.,0.,0.,0.,0.,0.,0.,0.,0.
 ,0.,0.,0.,0.,0.,0.,0.,0.,0.,0.,0.,0.,0.,0.,0.,0.,0.,0.,0.00021249,0.00
 038178,0.00031253,-0.00073053,-0.00044208,-0.00037166,0.00050260,0.000
 44772,0.00080825,0.00027476,-0.00002089,0.00140516,0.00006640,-0.00157
 173,-0.00039795,-0.00018497,0.00117917,-0.00020989,-0.00004771,0.00025
 799,-0.00004784,-0.00050798,-0.00083223,0.00058085,0.00006077,0.000146
 54,0.00006281,0.00000172,-0.00009962,0.00001395,0.00014543,-0.00005669
 ,0.00027257,-0.00126064,0.00019445,-0.00008139,0.00017086,0.00000102,-
 0.00019353,-0.00095427,0.00045684,-0.00037293,0.00026361,0.00009173,-0
 .00015977,0.00004101,-0.00019799,0.00013093,-0.00003012,-0.00011621,0.
 00002223,0.00010878,0.00006662,-0.00002207,0.,0.,0.,0.,0.,0.,0.,0.,0.,
 0.,0.,0.,0.,0.,0.,0.,0.,0.,0.,0.,0.,0.,0.,0.,0.,0.,0.,0.,0.,0.,0.,0.,0
 .,0.,0.,0.,0.,0.,0.,0.,0.,0.,0.,0.,0.,0.,0.,0.,0.,0.,0.,0.,0.,0.,0.,0.
 ,0.,0.,0.,0.,0.,0.,0.,0.,0.,0.,0.,0.,0.,0.,0.,0.,0.,0.,0.,0.,0.,0.,0.,
 0.,0.,0.,0.,0.,0.,0.,0.,0.00182079,0.,0.,0.,0.,0.,0.,-0.00022317,0.000
 17941,0.00016702,0.,0.,0.,-0.00068027,0.00025118,-0.00011690,0.,0.,0.,
 0.,0.,0.,0.00083934,-0.00011461,-0.00034717,-0.00035080,-0.00013130,-0
 .00002202,0.,0.,0.,-0.00031312,-0.00009768,0.00021733,0.,0.,0.,0.,0.,0
 .,0.,0.,0.,0.,0.,0.,0.,0.,0.,0.,0.,0.,0.,0.,0.,0.,0.,0.,0.,0.,0.,0.,0.
 ,0.,0.,0.,0.,0.,0.,0.,0.,0.,0.,0.,0.,0.,0.,0.,0.,0.,0.,0.,0.,0.,0.,0.,
 0.,0.,0.00008977,0.00021074,-0.00009264,0.00027862,0.00025583,-0.00010
 016,-0.00006791,-0.00161605,-0.00004005,0.00039286,0.00250313,0.001030
 60,-0.00044697,-0.00163697,-0.00133527,0.00028469,0.00089749,-0.000465
 78,0.00025302,0.00030291,-0.00012232,-0.00110991,-0.00058912,0.0009015
 6,-0.00005477,-0.00003782,0.00007873,-0.00008458,-0.00002123,0.0000752
 7,-0.00008361,-0.00011764,0.00002624,0.00002194,-0.00084074,0.00026154
 ,-0.00017763,0.00014584,0.00003747,0.00037305,-0.00022075,-0.00027962,
 -0.00018409,-0.00002371,0.00037255,-0.00000572,-0.00004282,-0.00012319
 ,0.00002950,0.00004934,-0.00002259,0.00015463,0.00002760,-0.00002322,0
 .,0.,0.,0.,0.,0.,0.,0.,0.,0.,0.,0.,0.,0.,0.,0.,0.,0.,0.,0.,0.,0.,0.,0.
 ,0.,0.,0.,0.,0.,0.,0.,0.,0.,0.,0.,0.,0.,0.,0.,0.,0.,0.,0.,0.,0.,0.,0.,
 0.,0.,0.,0.,0.,0.,0.,0.,0.,0.,0.,0.,0.,0.,0.,0.,0.,0.,0.,0.,0.,0.,0.,0
 .,0.,0.,0.,0.,0.,0.,0.,0.,0.,0.,0.,0.,0.,0.,0.,0.,0.00009947,0.0007507
 0,0.,0.,0.,0.,0.,0.,0.00042893,-0.00003218,-0.00012801,0.,0.,0.,0.0008
 5403,-0.00007373,0.00039687,0.,0.,0.,0.,0.,0.,-0.00092303,-0.00029367,
 0.00006372,0.00033763,0.00024632,0.00017773,0.,0.,0.,0.00037129,0.0002
 0903,-0.00017480,0.,0.,0.,0.,0.,0.,0.,0.,0.,0.,0.,0.,0.,0.,0.,0.,0.,0.
 ,0.,0.,0.,0.,0.,0.,0.,0.,0.,0.,0.,0.,0.,0.,0.,0.,0.,0.,0.,0.,0.,0.,0.,
 0.,0.,0.,0.,0.,0.,0.,0.,0.,0.,0.,0.,0.,-0.00012296,-0.00051260,-0.0004
 8865,0.00095499,0.00097961,0.00064665,-0.00058624,-0.00158659,-0.00085
 185,0.00073949,0.00138370,-0.00070129,-0.00040541,0.00063707,-0.000206
 19,-0.00026462,-0.00130921,0.00036112,-0.00014311,-0.00018976,-0.00026
 932,0.00097865,0.00096527,-0.00043487,-0.00012163,-0.00024970,-0.00002
 296,0.00009159,0.00003150,-0.00003834,-0.00005429,0.00000261,0.0000653
 5,-0.00011018,0.00002813,-0.00075827,0.00067839,-0.00005375,-0.0005135
 5,-0.00017249,-0.00025548,-0.00050183,0.00027238,0.00001703,-0.0002184
 5,0.00001167,0.00002204,0.00000439,0.00007358,0.00014074,0.00001355,0.
 00003438,0.00000310,0.00000493,0.,0.,0.,0.,0.,0.,0.,0.,0.,0.,0.,0.,0.,
 0.,0.,0.,0.,0.,0.,0.,0.,0.,0.,0.,0.,0.,0.,0.,0.,0.,0.,0.,0.,0.,0.,0.,0
 .,0.,0.,0.,0.,0.,0.,0.,0.,0.,0.,0.,0.,0.,0.,0.,0.,0.,0.,0.,0.,0.,0.,0.
 ,0.,0.,0.,0.,0.,0.,0.,0.,0.,0.,0.,0.,0.,0.,0.,0.,0.,0.,0.,0.,0.,0.,0.,
 0.,0.,0.,0.,-0.00166357,0.00000906,0.00369428\\0.,0.,0.,0.,0.,0.,0.,0.
 ,0.,0.,0.,0.,0.,0.,0.,0.,0.,0.,0.,0.,0.,0.,0.,0.,0.,0.,0.,0.,0.,0.,0.,
 0.,0.,0.,0.,0.,0.,0.,0.,0.,0.,0.,0.,0.,0.,0.,0.,0.,0.,0.,0.,0.,0.,0.,0
 .,0.,0.,0.,0.,0.,0.,0.,0.,0.,0.,0.,0.,0.,0.,0.,0.,0.,0.,0.,0.,0.,0.,0.
 ,0.,0.,0.,0.,0.,0.,0.,0.,0.,-0.00000003,0.00000007,0.00000006,0.000000
 07,-0.00000007,-0.00000001,-0.00000001,-0.00000002,0.00000002,0.,-0.00
 000001,0.00000006,-0.00000003,-0.00000001,0.,0.00000005,0.00000002,0.0
 0000001,-0.00000003,-0.00000004,-0.00000008,-0.00000006,-0.00000001,0.
 00000008,0.00000007,0.00000002,0.00000008,0.00000002,0.,0.00000002,0.0
 0000003,-0.00000003,0.00000001,0.00000005,0.,-0.00000005,0.,0.,0.00000
 002,0.00000004,0.00000001,-0.00000006,0.,0.,0.,0.,0.,0.,0.,-0.00000004
 ,-0.00000002,0.,0.,-0.00000002,0.,0.,0.,0.,0.,0.,0.,0.,0.,0.,0.,0.,0.,
 0.,0.,0.,0.,0.,0.,0.,0.,0.,0.,0.,0.,0.,0.,0.,0.,0.,0.,0.,0.,0.,0.,0.,0
 .,0.,0.,0.,0.,0.,0.,0.,0.,0.,0.,0.,0.,0.,0.,0.,0.,0.,0.,0.,0.,0.,0.,0.
 ,0.,0.,0.,0.,0.,0.,0.,0.,0.,0.,0.,0.,0.,0.,0.,0.,0.,0.,0.,0.,0.,0.,0.,
 0.,0.,0.,0.,0.,0.,0.00000002\\\@


 WHEN YOU REACH FOR THE STARS, YOU MAY NOT QUITE GET ONE,
 BUT YOU WON'T COME UP WITH A HANDFUL OF MUD, EITHER.

                                         -- LEO BURNETT (AD AGENCY HEAD)
 Job cpu time:       0 days  0 hours  4 minutes 38.3 seconds.
 Elapsed time:       0 days  0 hours 46 minutes 48.8 seconds.
 File lengths (MBytes):  RWF=   4510 Int=      0 D2E=      0 Chk=     59 Scr=      1
 Normal termination of Gaussian 16 at Mon Jun 26 12:17:27 2023.
