 Entering Gaussian System, Link 0=g16
 Input=IRC_3.com
 Output=IRC_3.log
 Initial command:
 /opt/ohpc/pub/apps/gaussian/avx2/g16/l1.exe "/scratch/g16-tmp/Gau-2351121.inp" -scrdir="/scratch/g16-tmp/"
 Entering Link 1 = /opt/ohpc/pub/apps/gaussian/avx2/g16/l1.exe PID=   2351123.
  
 Copyright (c) 1988-2017, Gaussian, Inc.  All Rights Reserved.
  
 This is part of the Gaussian(R) 16 program.  It is based on
 the Gaussian(R) 09 system (copyright 2009, Gaussian, Inc.),
 the Gaussian(R) 03 system (copyright 2003, Gaussian, Inc.),
 the Gaussian(R) 98 system (copyright 1998, Gaussian, Inc.),
 the Gaussian(R) 94 system (copyright 1995, Gaussian, Inc.),
 the Gaussian 92(TM) system (copyright 1992, Gaussian, Inc.),
 the Gaussian 90(TM) system (copyright 1990, Gaussian, Inc.),
 the Gaussian 88(TM) system (copyright 1988, Gaussian, Inc.),
 the Gaussian 86(TM) system (copyright 1986, Carnegie Mellon
 University), and the Gaussian 82(TM) system (copyright 1983,
 Carnegie Mellon University). Gaussian is a federally registered
 trademark of Gaussian, Inc.
  
 This software contains proprietary and confidential information,
 including trade secrets, belonging to Gaussian, Inc.
  
 This software is provided under written license and may be
 used, copied, transmitted, or stored only in accord with that
 written license.
  
 The following legend is applicable only to US Government
 contracts under FAR:
  
                    RESTRICTED RIGHTS LEGEND
  
 Use, reproduction and disclosure by the US Government is
 subject to restrictions as set forth in subparagraphs (a)
 and (c) of the Commercial Computer Software - Restricted
 Rights clause in FAR 52.227-19.
  
 Gaussian, Inc.
 340 Quinnipiac St., Bldg. 40, Wallingford CT 06492
  
  
 ---------------------------------------------------------------
 Warning -- This program may not be used in any manner that
 competes with the business of Gaussian, Inc. or will provide
 assistance to any competitor of Gaussian, Inc.  The licensee
 of this program is prohibited from giving any competitor of
 Gaussian, Inc. access to this program.  By using this program,
 the user acknowledges that Gaussian, Inc. is engaged in the
 business of creating and licensing software in the field of
 computational chemistry and represents and warrants to the
 licensee that it is not a competitor of Gaussian, Inc. and that
 it will not use this program in any manner prohibited above.
 ---------------------------------------------------------------
  

 Cite this work as:
 Gaussian 16, Revision B.01,
 M. J. Frisch, G. W. Trucks, H. B. Schlegel, G. E. Scuseria, 
 M. A. Robb, J. R. Cheeseman, G. Scalmani, V. Barone, 
 G. A. Petersson, H. Nakatsuji, X. Li, M. Caricato, A. V. Marenich, 
 J. Bloino, B. G. Janesko, R. Gomperts, B. Mennucci, H. P. Hratchian, 
 J. V. Ortiz, A. F. Izmaylov, J. L. Sonnenberg, D. Williams-Young, 
 F. Ding, F. Lipparini, F. Egidi, J. Goings, B. Peng, A. Petrone, 
 T. Henderson, D. Ranasinghe, V. G. Zakrzewski, J. Gao, N. Rega, 
 G. Zheng, W. Liang, M. Hada, M. Ehara, K. Toyota, R. Fukuda, 
 J. Hasegawa, M. Ishida, T. Nakajima, Y. Honda, O. Kitao, H. Nakai, 
 T. Vreven, K. Throssell, J. A. Montgomery, Jr., J. E. Peralta, 
 F. Ogliaro, M. J. Bearpark, J. J. Heyd, E. N. Brothers, K. N. Kudin, 
 V. N. Staroverov, T. A. Keith, R. Kobayashi, J. Normand, 
 K. Raghavachari, A. P. Rendell, J. C. Burant, S. S. Iyengar, 
 J. Tomasi, M. Cossi, J. M. Millam, M. Klene, C. Adamo, R. Cammi, 
 J. W. Ochterski, R. L. Martin, K. Morokuma, O. Farkas, 
 J. B. Foresman, and D. J. Fox, Gaussian, Inc., Wallingford CT, 2016.
 
 ******************************************
 Gaussian 16:  ES64L-G16RevB.01 20-Dec-2017
                14-Jun-2023 
 ******************************************
 %nprocshared=64
 Will use up to   64 processors via shared memory.
 %mem=64GB
 %chk=IRC_3.chk
 ----------------------------------------------------------------------
 # irc=(calcfc,maxpoints=120,recalc=3) b3lyp/gen nosymm scf=(qc,maxcycl
 e=1024) pseudo=read
 ----------------------------------------------------------------------
 1/10=4,18=10,26=3,38=1,42=120,44=3,71=3,172=1/1,23;
 2/12=2,15=1,17=6,18=5,29=1,40=1/2;
 3/5=7,11=2,16=1,17=8,25=1,30=1,71=2,74=-5,140=1/1,2,3;
 4//1;
 5/5=2,7=1024,8=3,38=5/8;
 8/6=4,10=90,11=11/1;
 11/6=1,8=1,9=11,15=111,16=1,31=1/1,2,10;
 10/6=1,13=1,31=1/2;
 6/7=2,8=2,9=2,10=2,28=1/1;
 7/10=1,18=20,25=1,30=1/1,2,3,16;
 1/10=4,18=10,26=3,42=120,44=3,71=3/23(2);
 2/15=1,29=1/2;
 99/5=20/99;
 2/15=1,29=1/2;
 3/5=7,6=1,11=2,16=1,17=8,25=1,30=1,71=2,74=-5,82=7,140=1/1,2,3;
 4/5=5,16=3,69=1/1;
 5/5=2,7=1024,8=3,38=5/8;
 8/6=4,10=90,11=11/1;
 11/6=1,8=1,9=11,15=111,16=1,31=1/1,2,10;
 10/6=1,13=1,31=1/2;
 7/10=1,18=20,25=1,30=1/1,2,3,16;
 1/18=10,26=3,42=120,44=3,71=3/23(-8);
 2/15=1,29=1/2;
 6/7=2,8=2,9=2,10=2,19=2,28=1/1;
 99/5=20,9=1/99;
 -----
 IRC_3
 -----
 Symbolic Z-matrix:
 Charge =  0 Multiplicity = 1
 Zn                   -1   -1.45149  -0.05762   0.03912 
 O                    -1   -1.35702   1.53955   1.34416 
 O                    0     0.90039   1.6096    1.25054 
 O                    -1   -0.5284    1.19155  -1.45897 
 O                    0     1.71918   1.36511  -1.60588 
 C                    -1   -0.21823   2.00247   1.65554 
 C                    -1    0.53946   1.62865  -1.96596 
 Zn                   0     1.97635   0.03513  -0.07284 
 O                    0     0.96108  -1.52083  -1.31289 
 O                    -1   -1.29636  -1.64427  -1.27295 
 O                    0     1.91115  -1.21399   1.51524 
 O                    -1   -0.35021  -1.22314   1.48339 
 C                    -1   -0.14191  -2.01349  -1.64583 
 C                    -1    0.77542  -1.57032   1.93154 
 H                    -1   -0.21241   2.85512   2.35512 
 H                    -1    0.45226   2.32513  -2.81476 
 H                    -1   -0.10404  -2.86425  -2.3467 
 H                    -1    0.79103  -2.26922   2.78269 
 C                    -1   -4.29085   0.71977   0.85719 
 C                    -1   -5.68219   0.69152   0.92253 
 C                    -1   -6.37249  -0.26658   0.17801 
 C                    -1   -5.64646  -1.16416  -0.60686 
 C                    -1   -4.25632  -1.07361  -0.62068 
 N                    -1   -3.59149  -0.1478    0.09886 
 H                    -1   -7.45719  -0.31294   0.20891 
 H                    -1   -3.69995   1.44092   1.41288 
 H                    -1   -6.20625   1.40825   1.5457 
 H                    -1   -6.14207  -1.92446  -1.20099 
 H                    -1   -3.63862  -1.74321  -1.21066 
 C                    0     3.27534   3.71028   4.6347 
 C                    0     4.19352   3.601     3.67047 
 C                    0     3.88593   3.55407   2.20204 
 O                    0     4.57173   2.45599   1.62276 
 C                    0     4.50149   2.45192   0.19664 
 C                    0     4.95499   1.09678  -0.29929 
 C                    0     4.83493   0.81308  -1.72723 
 O                    0     4.01091   0.03643  -0.28025 
 H                    0     3.5539    3.76966   5.68354 
 H                    0     2.212     3.73226   4.40637 
 H                    0     5.25224   3.55247   3.9254 
 H                    0     4.22813   4.49446   1.72942 
 H                    0     2.80304   3.46113   2.02988 
 H                    0     5.16346   3.22396  -0.22451 
 H                    0     3.47458   2.6471   -0.14179 
 H                    0     5.90399   0.8095    0.1659 
 H                    0     5.39075  -0.01082  -2.1438 
 H                    0     4.009     1.23527  -2.27844 
 N                    -1    12.56665   10.34988  -11.70553 
 C                    -1    12.01819   11.13758  -12.91468 
 C                    -1    10.51343   11.09417  -13.15975 
 H                    -1    12.55604   10.74199  -13.78841 
 H                    -1    12.32122   12.17319  -12.73818 
 H                    -1    10.34657   11.6283  -14.10062 
 H                    -1    10.12674   10.08499  -13.30092 
 H                    -1    9.92634   11.60018  -12.38745 
 C                    -1    11.6348   10.52058  -10.51886 
 C                    -1    12.08277   9.87622  -9.20941 
 H                    -1    10.67115   10.11212  -10.81885 
 H                    -1    11.509    11.59982  -10.39084 
 H                    -1    11.30374   10.06648  -8.46439 
 H                    -1    12.19372   8.79234  -9.29324 
 H                    -1    13.01323   10.296   -8.82001 
 C                    -1    13.93137   10.95457  -11.34209 
 C                    -1    14.89787   11.18554  -12.50174 
 H                    -1    14.37175   10.27242  -10.61356 
 H                    -1    13.70951   11.89696  -10.83126 
 H                    -1    15.88471   11.37876  -12.06814 
 H                    -1    14.97379   10.33553  -13.18634 
 H                    -1    14.62234   12.05441  -13.10278 
 C                    -1    12.80268   8.86729  -12.04277 
 C                    -1    11.57427   8.01524  -12.32942 
 H                    -1    13.36272   8.46851  -11.19458 
 H                    -1    13.42944   8.86294  -12.94346 
 H                    -1    11.9273   6.98161  -12.40119 
 H                    -1    10.80608   8.04674  -11.54992 
 H                    -1    11.13999   8.25616  -13.30062 
 Br                   0     6.47579   2.4138   -3.05498 
 
 IRC-IRC-IRC-IRC-IRC-IRC-IRC-IRC-IRC-IRC-IRC-IRC-IRC-IRC-IRC-IRC-IRC-IRC
 ------------------------------------------------------------------------
 INPUT DATA FOR L123
 ------------------------------------------------------------------------
 GENERAL PARAMETERS:
 Follow reaction path in both directions.
 Maximum points per path      = 120
 Step size                    =   0.100 bohr
 Integration scheme           = HPC                                 
    Redo corrector integration= Yes                                 
    DWI Weight Power          =  2
    DWI will use Hessian update vectors when possible.
    Max correction cycles     =  20
 Initial Hessian              = CalcFC
 Hessian evaluation           = Analytic every   3 predictor steps
                              = Update at all corrector steps
 Hessian updating method      = Bofill                              
 ------------------------------------------------------------------------
 IRC-IRC-IRC-IRC-IRC-IRC-IRC-IRC-IRC-IRC-IRC-IRC-IRC-IRC-IRC-IRC-IRC-IRC
 Symmetry turned off by external request.
 Stoichiometry    C23H39BrN2O10Zn2
 Framework group  C1[X(C23H39BrN2O10Zn2)]
 Deg. of freedom   225
 Full point group                 C1      NOp   1
                          Input orientation:                          
 ---------------------------------------------------------------------
 Center     Atomic      Atomic             Coordinates (Angstroms)
 Number     Number       Type             X           Y           Z
 ---------------------------------------------------------------------
      1         30           0       -1.451491   -0.057618    0.039118
      2          8           0       -1.357024    1.539553    1.344161
      3          8           0        0.900389    1.609596    1.250544
      4          8           0       -0.528402    1.191553   -1.458968
      5          8           0        1.719176    1.365105   -1.605882
      6          6           0       -0.218228    2.002472    1.655543
      7          6           0        0.539459    1.628648   -1.965956
      8         30           0        1.976347    0.035132   -0.072837
      9          8           0        0.961079   -1.520825   -1.312890
     10          8           0       -1.296356   -1.644274   -1.272953
     11          8           0        1.911154   -1.213991    1.515243
     12          8           0       -0.350211   -1.223138    1.483387
     13          6           0       -0.141905   -2.013489   -1.645829
     14          6           0        0.775416   -1.570318    1.931541
     15          1           0       -0.212410    2.855121    2.355117
     16          1           0        0.452259    2.325134   -2.814762
     17          1           0       -0.104037   -2.864249   -2.346700
     18          1           0        0.791031   -2.269224    2.782692
     19          6           0       -4.290846    0.719773    0.857192
     20          6           0       -5.682192    0.691517    0.922528
     21          6           0       -6.372494   -0.266583    0.178008
     22          6           0       -5.646460   -1.164155   -0.606856
     23          6           0       -4.256318   -1.073614   -0.620675
     24          7           0       -3.591488   -0.147797    0.098858
     25          1           0       -7.457187   -0.312940    0.208912
     26          1           0       -3.699950    1.440916    1.412882
     27          1           0       -6.206250    1.408245    1.545704
     28          1           0       -6.142067   -1.924463   -1.200985
     29          1           0       -3.638620   -1.743207   -1.210660
     30          6           0        3.275335    3.710283    4.634698
     31          6           0        4.193524    3.600996    3.670472
     32          6           0        3.885934    3.554070    2.202040
     33          8           0        4.571728    2.455986    1.622757
     34          6           0        4.501486    2.451920    0.196635
     35          6           0        4.954985    1.096778   -0.299289
     36          6           0        4.834932    0.813077   -1.727231
     37          8           0        4.010909    0.036434   -0.280245
     38          1           0        3.553895    3.769657    5.683540
     39          1           0        2.212004    3.732256    4.406373
     40          1           0        5.252241    3.552468    3.925401
     41          1           0        4.228129    4.494456    1.729419
     42          1           0        2.803044    3.461126    2.029877
     43          1           0        5.163456    3.223959   -0.224514
     44          1           0        3.474580    2.647095   -0.141790
     45          1           0        5.903993    0.809502    0.165900
     46          1           0        5.390752   -0.010816   -2.143805
     47          1           0        4.008996    1.235272   -2.278438
     48          7           0       12.566652   10.349880  -11.705526
     49          6           0       12.018190   11.137578  -12.914680
     50          6           0       10.513428   11.094173  -13.159752
     51          1           0       12.556042   10.741989  -13.788409
     52          1           0       12.321218   12.173186  -12.738183
     53          1           0       10.346575   11.628303  -14.100617
     54          1           0       10.126737   10.084986  -13.300922
     55          1           0        9.926341   11.600176  -12.387448
     56          6           0       11.634802   10.520578  -10.518859
     57          6           0       12.082772    9.876223   -9.209415
     58          1           0       10.671150   10.112116  -10.818854
     59          1           0       11.509004   11.599820  -10.390844
     60          1           0       11.303743   10.066482   -8.464393
     61          1           0       12.193716    8.792343   -9.293240
     62          1           0       13.013231   10.296001   -8.820013
     63          6           0       13.931371   10.954572  -11.342087
     64          6           0       14.897866   11.185542  -12.501740
     65          1           0       14.371754   10.272423  -10.613560
     66          1           0       13.709505   11.896961  -10.831256
     67          1           0       15.884712   11.378760  -12.068138
     68          1           0       14.973789   10.335533  -13.186337
     69          1           0       14.622338   12.054412  -13.102778
     70          6           0       12.802675    8.867292  -12.042767
     71          6           0       11.574272    8.015242  -12.329415
     72          1           0       13.362724    8.468508  -11.194577
     73          1           0       13.429437    8.862942  -12.943458
     74          1           0       11.927303    6.981610  -12.401192
     75          1           0       10.806080    8.046741  -11.549915
     76          1           0       11.139989    8.256157  -13.300620
     77         35           0        6.475793    2.413805   -3.054978
 ---------------------------------------------------------------------
 Rotational constants (GHZ):           0.0992496           0.0112771           0.0107718
 General basis read from cards:  (5D, 7F)
 ======================================================================================================
                                       Pseudopotential Parameters
 ======================================================================================================
  Center     Atomic      Valence      Angular      Power
  Number     Number     Electrons     Momentum     of R      Exponent        Coefficient   SO-Coeffient
 ======================================================================================================
    1         30           12
                                      F and up 
                                                     1      386.7379660      -18.00000000    0.00000000
                                                     2       72.8587359     -124.35274030    0.00000000
                                                     2       15.9066170      -30.66018220    0.00000000
                                                     2        4.3502340      -10.63589890    0.00000000
                                                     2        1.2842199       -0.76836230    0.00000000
                                      S - F
                                                     0       19.0867858        3.00000000    0.00000000
                                                     1        5.0231080       22.52342250    0.00000000
                                                     2        1.2701744       48.44659420    0.00000000
                                                     2        1.0671287      -44.55601190    0.00000000
                                                     2        0.9264190       12.99839580    0.00000000
                                      P - F
                                                     0       43.4927750        5.00000000    0.00000000
                                                     1       20.8692669       20.74355890    0.00000000
                                                     2       21.7118378       90.30271580    0.00000000
                                                     2        6.3616915       74.66103160    0.00000000
                                                     2        1.2291195        9.88944240    0.00000000
                                      D - F
                                                     2       13.5851800       -4.84903590    0.00000000
                                                     2        9.8373050        3.69133790    0.00000000
                                                     2        0.8373113       -0.50373190    0.00000000
    2          8
                                   No pseudopotential on this center.
    3          8
                                   No pseudopotential on this center.
    4          8
                                   No pseudopotential on this center.
    5          8
                                   No pseudopotential on this center.
    6          6
                                   No pseudopotential on this center.
    7          6
                                   No pseudopotential on this center.
    8         30           12
                                      F and up 
                                                     1      386.7379660      -18.00000000    0.00000000
                                                     2       72.8587359     -124.35274030    0.00000000
                                                     2       15.9066170      -30.66018220    0.00000000
                                                     2        4.3502340      -10.63589890    0.00000000
                                                     2        1.2842199       -0.76836230    0.00000000
                                      S - F
                                                     0       19.0867858        3.00000000    0.00000000
                                                     1        5.0231080       22.52342250    0.00000000
                                                     2        1.2701744       48.44659420    0.00000000
                                                     2        1.0671287      -44.55601190    0.00000000
                                                     2        0.9264190       12.99839580    0.00000000
                                      P - F
                                                     0       43.4927750        5.00000000    0.00000000
                                                     1       20.8692669       20.74355890    0.00000000
                                                     2       21.7118378       90.30271580    0.00000000
                                                     2        6.3616915       74.66103160    0.00000000
                                                     2        1.2291195        9.88944240    0.00000000
                                      D - F
                                                     2       13.5851800       -4.84903590    0.00000000
                                                     2        9.8373050        3.69133790    0.00000000
                                                     2        0.8373113       -0.50373190    0.00000000
    9          8
                                   No pseudopotential on this center.
   10          8
                                   No pseudopotential on this center.
   11          8
                                   No pseudopotential on this center.
   12          8
                                   No pseudopotential on this center.
   13          6
                                   No pseudopotential on this center.
   14          6
                                   No pseudopotential on this center.
   15          1
                                   No pseudopotential on this center.
   16          1
                                   No pseudopotential on this center.
   17          1
                                   No pseudopotential on this center.
   18          1
                                   No pseudopotential on this center.
   19          6
                                   No pseudopotential on this center.
   20          6
                                   No pseudopotential on this center.
   21          6
                                   No pseudopotential on this center.
   22          6
                                   No pseudopotential on this center.
   23          6
                                   No pseudopotential on this center.
   24          7
                                   No pseudopotential on this center.
   25          1
                                   No pseudopotential on this center.
   26          1
                                   No pseudopotential on this center.
   27          1
                                   No pseudopotential on this center.
   28          1
                                   No pseudopotential on this center.
   29          1
                                   No pseudopotential on this center.
   30          6
                                   No pseudopotential on this center.
   31          6
                                   No pseudopotential on this center.
   32          6
                                   No pseudopotential on this center.
   33          8
                                   No pseudopotential on this center.
   34          6
                                   No pseudopotential on this center.
   35          6
                                   No pseudopotential on this center.
   36          6
                                   No pseudopotential on this center.
   37          8
                                   No pseudopotential on this center.
   38          1
                                   No pseudopotential on this center.
   39          1
                                   No pseudopotential on this center.
   40          1
                                   No pseudopotential on this center.
   41          1
                                   No pseudopotential on this center.
   42          1
                                   No pseudopotential on this center.
   43          1
                                   No pseudopotential on this center.
   44          1
                                   No pseudopotential on this center.
   45          1
                                   No pseudopotential on this center.
   46          1
                                   No pseudopotential on this center.
   47          1
                                   No pseudopotential on this center.
   48          7
                                   No pseudopotential on this center.
   49          6
                                   No pseudopotential on this center.
   50          6
                                   No pseudopotential on this center.
   51          1
                                   No pseudopotential on this center.
   52          1
                                   No pseudopotential on this center.
   53          1
                                   No pseudopotential on this center.
   54          1
                                   No pseudopotential on this center.
   55          1
                                   No pseudopotential on this center.
   56          6
                                   No pseudopotential on this center.
   57          6
                                   No pseudopotential on this center.
   58          1
                                   No pseudopotential on this center.
   59          1
                                   No pseudopotential on this center.
   60          1
                                   No pseudopotential on this center.
   61          1
                                   No pseudopotential on this center.
   62          1
                                   No pseudopotential on this center.
   63          6
                                   No pseudopotential on this center.
   64          6
                                   No pseudopotential on this center.
   65          1
                                   No pseudopotential on this center.
   66          1
                                   No pseudopotential on this center.
   67          1
                                   No pseudopotential on this center.
   68          1
                                   No pseudopotential on this center.
   69          1
                                   No pseudopotential on this center.
   70          6
                                   No pseudopotential on this center.
   71          6
                                   No pseudopotential on this center.
   72          1
                                   No pseudopotential on this center.
   73          1
                                   No pseudopotential on this center.
   74          1
                                   No pseudopotential on this center.
   75          1
                                   No pseudopotential on this center.
   76          1
                                   No pseudopotential on this center.
   77         35
                                   No pseudopotential on this center.
 ======================================================================================================
   893 basis functions,  1558 primitive gaussians,   934 cartesian basis functions
   165 alpha electrons      165 beta electrons
       nuclear repulsion energy      4754.8899941040 Hartrees.
 NAtoms=   77 NActive=   77 NUniq=   77 SFac= 1.00D+00 NAtFMM=   60 NAOKFM=T Big=T
 Integral buffers will be    131072 words long.
 Raffenetti 2 integral format.
 Two-electron integral symmetry is turned off.
 One-electron integrals computed using PRISM.
   1 Symmetry operations used in ECPInt.
 ECPInt:  NShTT=   50403 NPrTT=  223596 LenC2=   25975 LenP2D=   70778.
 LDataN:  DoStor=T MaxTD1= 5 Len=  102
 NBasis=   893 RedAO= T EigKep=  7.00D-06  NBF=   893
 NBsUse=   893 1.00D-06 EigRej= -1.00D+00 NBFU=   893
 ExpMin= 3.50D-02 ExpMax= 5.74D+05 ExpMxC= 5.74D+03 IAcc=3 IRadAn=         5 AccDes= 0.00D+00
 Harris functional with IExCor=  402 and IRadAn=       5 diagonalized for initial guess.
 HarFok:  IExCor=  402 AccDes= 0.00D+00 IRadAn=         5 IDoV= 1 UseB2=F ITyADJ=14
 ICtDFT=  3500011 ScaDFX=  1.000000  1.000000  1.000000  1.000000
 FoFCou: FMM=F IPFlag=           0 FMFlag=      100000 FMFlg1=        2001
         NFxFlg=           0 DoJE=T BraDBF=F KetDBF=T FulRan=T
         wScrn=  0.000000 ICntrl=       500 IOpCl=  0 I1Cent=   200000004 NGrid=           0
         NMat0=    1 NMatS0=      1 NMatT0=    0 NMatD0=    1 NMtDS0=    0 NMtDT0=    0
 Symmetry not used in FoFCou.
 Gradient too large for Newton-Raphson -- use scaled steepest descent instead.
     Accept linear search using points  2 and  3.
 Gradient too large for Newton-Raphson -- use scaled steepest descent instead.
     Minimum is close to point  3 DX= -1.35D-02 DF= -5.34D-05 DXR=  2.78D-02 DFR=  7.66D-04 which will be used.
 Gradient too large for Newton-Raphson -- use scaled steepest descent instead.
     Accept linear search using points  1 and  2.
 Gradient too large for Newton-Raphson -- use scaled steepest descent instead.
 Gradient too large for Newton-Raphson -- use scaled steepest descent instead.
     Accept linear search using points  1 and  2.
 Gradient too large for Newton-Raphson -- use scaled steepest descent instead.
     Accept linear search using points  1 and  2.
 Gradient too large for Newton-Raphson -- use scaled steepest descent instead.
     Accept linear search using points  2 and  3.
 LinEq1:  Iter=  0 NonCon=     1 RMS=1.61D-05 Max=1.62D-03 NDo=     1
 AX will form     1 AO Fock derivatives at one time.
 LinEq1:  Iter=  1 NonCon=     1 RMS=2.00D-05 Max=2.39D-03 NDo=     1
 LinEq1:  Iter=  2 NonCon=     1 RMS=5.28D-06 Max=4.91D-04 NDo=     1
 LinEq1:  Iter=  3 NonCon=     1 RMS=3.59D-06 Max=2.01D-04 NDo=     1
 LinEq1:  Iter=  4 NonCon=     1 RMS=2.48D-06 Max=2.46D-04 NDo=     1
 LinEq1:  Iter=  5 NonCon=     1 RMS=1.59D-06 Max=8.52D-05 NDo=     1
 LinEq1:  Iter=  6 NonCon=     1 RMS=7.65D-07 Max=3.42D-05 NDo=     1
 LinEq1:  Iter=  7 NonCon=     1 RMS=5.12D-07 Max=4.48D-05 NDo=     1
 LinEq1:  Iter=  8 NonCon=     1 RMS=3.25D-07 Max=1.90D-05 NDo=     1
 LinEq1:  Iter=  9 NonCon=     1 RMS=1.87D-07 Max=2.37D-05 NDo=     1
 LinEq1:  Iter= 10 NonCon=     1 RMS=1.24D-07 Max=1.46D-05 NDo=     1
 LinEq1:  Iter= 11 NonCon=     1 RMS=7.00D-08 Max=4.28D-06 NDo=     1
 LinEq1:  Iter= 12 NonCon=     1 RMS=3.66D-08 Max=1.79D-06 NDo=     1
 LinEq1:  Iter= 13 NonCon=     1 RMS=3.01D-08 Max=1.74D-06 NDo=     1
 LinEq1:  Iter= 14 NonCon=     1 RMS=2.04D-08 Max=8.78D-07 NDo=     1
 LinEq1:  Iter= 15 NonCon=     1 RMS=1.21D-08 Max=8.42D-07 NDo=     1
 LinEq1:  Iter= 16 NonCon=     1 RMS=7.20D-09 Max=5.06D-07 NDo=     1
 LinEq1:  Iter= 17 NonCon=     0 RMS=4.05D-09 Max=2.22D-07 NDo=     1
 Linear equations converged to 4.901D-08 4.901D-07 after    17 iterations.
     Accept linear search using points  1 and  2.
     Minimum is close to point  2 DX= -3.01D-04 DF= -1.82D-12 DXR=  3.01D-04 DFR=  7.48D-08 which will be used.
 LinEq1:  Iter=  0 NonCon=     1 RMS=3.99D-08 Max=5.62D-06 NDo=     1
 LinEq1:  Iter=  1 NonCon=     1 RMS=2.43D-08 Max=3.34D-06 NDo=     1
 LinEq1:  Iter=  2 NonCon=     1 RMS=9.64D-09 Max=7.00D-07 NDo=     1
 LinEq1:  Iter=  3 NonCon=     1 RMS=6.70D-09 Max=6.04D-07 NDo=     1
 LinEq1:  Iter=  4 NonCon=     1 RMS=5.94D-09 Max=5.80D-07 NDo=     1
 LinEq1:  Iter=  5 NonCon=     1 RMS=2.47D-09 Max=3.09D-07 NDo=     1
 LinEq1:  Iter=  6 NonCon=     1 RMS=2.02D-09 Max=1.75D-07 NDo=     1
 LinEq1:  Iter=  7 NonCon=     1 RMS=1.28D-09 Max=1.39D-07 NDo=     1
 LinEq1:  Iter=  8 NonCon=     1 RMS=1.05D-09 Max=1.10D-07 NDo=     1
 LinEq1:  Iter=  9 NonCon=     1 RMS=7.73D-10 Max=7.96D-08 NDo=     1
 LinEq1:  Iter= 10 NonCon=     1 RMS=5.45D-10 Max=3.77D-08 NDo=     1
 LinEq1:  Iter= 11 NonCon=     1 RMS=3.12D-10 Max=1.86D-08 NDo=     1
 LinEq1:  Iter= 12 NonCon=     1 RMS=2.13D-10 Max=1.23D-08 NDo=     1
 LinEq1:  Iter= 13 NonCon=     1 RMS=1.64D-10 Max=9.88D-09 NDo=     1
 LinEq1:  Iter= 14 NonCon=     1 RMS=8.03D-11 Max=9.09D-09 NDo=     1
 LinEq1:  Iter= 15 NonCon=     1 RMS=6.28D-11 Max=7.39D-09 NDo=     1
 LinEq1:  Iter= 16 NonCon=     1 RMS=2.95D-11 Max=1.75D-09 NDo=     1
 LinEq1:  Iter= 17 NonCon=     1 RMS=2.09D-11 Max=1.31D-09 NDo=     1
 LinEq1:  Iter= 18 NonCon=     1 RMS=1.82D-11 Max=9.28D-10 NDo=     1
 LinEq1:  Iter= 19 NonCon=     0 RMS=1.05D-11 Max=3.72D-10 NDo=     1
 Linear equations converged to 5.439D-11 5.439D-10 after    19 iterations.
 Restarting incremental Fock formation.
 SCF Done:  E(RB3LYP) =  -4464.46166012     a.u. after   10 cycles
            Convg  =    0.5639D-08                    57 Fock formations.
              S**2 =  0.0000                  -V/T =  1.9810
 DoSCS=F DFT=T ScalE2(SS,OS)=  1.000000  1.000000
 Range of M.O.s used for correlation:     1   893
 NBasis=   893 NAE=   165 NBE=   165 NFC=     0 NFV=     0
 NROrb=    893 NOA=   165 NOB=   165 NVA=   728 NVB=   728

 **** Warning!!: The largest alpha MO coefficient is  0.84202176D+02


 **** Warning!!: The smallest alpha delta epsilon is  0.36400236D-01

   1 Symmetry operations used in ECPInt.
 ECPInt:  NShTT=   50403 NPrTT=  223596 LenC2=   25975 LenP2D=   70778.
 LDataN:  DoStor=T MaxTD1= 6 Len=  172
 Number of processors reduced to   9 by ecpmxn.
 Symmetrizing basis deriv contribution to polar:
 IMax=3 JMax=2 DiffMx= 0.00D+00
 G2DrvN: will do    78 centers at a time, making    1 passes.
 Calling FoFCou, ICntrl=  3107 FMM=T I1Cent=   0 AccDes= 0.00D+00.
 End of G2Drv F.D. properties file   721 does not exist.
 End of G2Drv F.D. properties file   722 does not exist.
 End of G2Drv F.D. properties file   788 does not exist.
          IDoAtm=00101001101000000000000000000111111111111111111000
          IDoAtm=000000000000000000000000001
          Differentiating once with respect to nuclear coordinates.
 CalDSu exits because no D1Ps are significant.
          There are    75 degrees of freedom in the 1st order CPHF.  IDoFFX=6 NUNeed=     0.
     72 vectors produced by pass  0 Test12= 1.60D-13 1.33D-09 XBig12= 1.31D-01 8.30D-02.
 AX will form    72 AO Fock derivatives at one time.
     72 vectors produced by pass  1 Test12= 1.60D-13 1.33D-09 XBig12= 5.00D-02 4.78D-02.
     72 vectors produced by pass  2 Test12= 1.60D-13 1.33D-09 XBig12= 3.07D-03 9.73D-03.
     72 vectors produced by pass  3 Test12= 1.60D-13 1.33D-09 XBig12= 1.01D-04 8.81D-04.
     72 vectors produced by pass  4 Test12= 1.60D-13 1.33D-09 XBig12= 1.53D-06 8.83D-05.
     72 vectors produced by pass  5 Test12= 1.60D-13 1.33D-09 XBig12= 2.07D-08 1.51D-05.
     60 vectors produced by pass  6 Test12= 1.60D-13 1.33D-09 XBig12= 1.32D-10 1.86D-06.
     26 vectors produced by pass  7 Test12= 1.60D-13 1.33D-09 XBig12= 6.75D-13 1.38D-07.
     13 vectors produced by pass  8 Test12= 1.60D-13 1.33D-09 XBig12= 5.62D-15 1.37D-08.
 InvSVY:  IOpt=1 It=  1 EMax= 6.11D-16
 Solved reduced A of dimension   531 with    75 vectors.
 End of Minotr F.D. properties file   721 does not exist.
 End of Minotr F.D. properties file   722 does not exist.
 End of Minotr F.D. properties file   788 does not exist.

 **********************************************************************

            Population analysis using the SCF Density.

 **********************************************************************

 Alpha  occ. eigenvalues -- -482.49543 -61.58007 -56.14796 -56.14688 -56.14681
 Alpha  occ. eigenvalues --  -19.08199 -19.07604 -19.07507 -19.07072 -19.06907
 Alpha  occ. eigenvalues --  -19.06638 -19.06602 -19.06594 -19.06408 -19.05892
 Alpha  occ. eigenvalues --  -14.57364 -14.35293 -10.36195 -10.35976 -10.35856
 Alpha  occ. eigenvalues --  -10.35479 -10.30125 -10.29748 -10.29585 -10.29351
 Alpha  occ. eigenvalues --  -10.23769 -10.23668 -10.23629 -10.23263 -10.22078
 Alpha  occ. eigenvalues --  -10.22075 -10.20907 -10.19617 -10.19617 -10.17003
 Alpha  occ. eigenvalues --  -10.16335 -10.16023 -10.15070 -10.13982 -10.13296
 Alpha  occ. eigenvalues --   -8.34988  -6.35995  -6.35674  -6.35664  -2.48058
 Alpha  occ. eigenvalues --   -2.47975  -2.47967  -2.47711  -2.47711  -1.12359
 Alpha  occ. eigenvalues --   -1.00189  -0.99725  -0.99606  -0.99247  -0.96732
 Alpha  occ. eigenvalues --   -0.94904  -0.92128  -0.91490  -0.91262  -0.91154
 Alpha  occ. eigenvalues --   -0.90907  -0.90656  -0.90475  -0.90224  -0.85186
 Alpha  occ. eigenvalues --   -0.80636  -0.77808  -0.77219  -0.76333  -0.76212
 Alpha  occ. eigenvalues --   -0.73462  -0.69500  -0.67309  -0.63843  -0.63733
 Alpha  occ. eigenvalues --   -0.63313  -0.62973  -0.62900  -0.61904  -0.59362
 Alpha  occ. eigenvalues --   -0.58402  -0.58066  -0.56448  -0.55983  -0.55704
 Alpha  occ. eigenvalues --   -0.55438  -0.55268  -0.55026  -0.54711  -0.54003
 Alpha  occ. eigenvalues --   -0.53908  -0.53459  -0.53248  -0.52754  -0.52407
 Alpha  occ. eigenvalues --   -0.52204  -0.52113  -0.52014  -0.51671  -0.51370
 Alpha  occ. eigenvalues --   -0.51317  -0.51127  -0.51069  -0.50782  -0.50576
 Alpha  occ. eigenvalues --   -0.50150  -0.49783  -0.49545  -0.48868  -0.48370
 Alpha  occ. eigenvalues --   -0.48142  -0.47721  -0.47554  -0.46668  -0.46635
 Alpha  occ. eigenvalues --   -0.46163  -0.43498  -0.43354  -0.43164  -0.42956
 Alpha  occ. eigenvalues --   -0.41843  -0.41309  -0.41047  -0.40814  -0.40217
 Alpha  occ. eigenvalues --   -0.40092  -0.39699  -0.39476  -0.39288  -0.38891
 Alpha  occ. eigenvalues --   -0.37607  -0.36947  -0.36740  -0.36131  -0.35949
 Alpha  occ. eigenvalues --   -0.35322  -0.35137  -0.33476  -0.33045  -0.31555
 Alpha  occ. eigenvalues --   -0.30730  -0.30023  -0.29349  -0.28486  -0.26536
 Alpha  occ. eigenvalues --   -0.26306  -0.25899  -0.23785  -0.23550  -0.23243
 Alpha  occ. eigenvalues --   -0.22995  -0.22483  -0.22169  -0.22097  -0.21731
 Alpha  occ. eigenvalues --   -0.21553  -0.21384  -0.21243  -0.20952  -0.20040
 Alpha  occ. eigenvalues --   -0.19113  -0.18485  -0.13737  -0.13484  -0.13458
 Alpha virt. eigenvalues --   -0.09818  -0.08122  -0.07998  -0.07770  -0.05859
 Alpha virt. eigenvalues --   -0.05726  -0.04701  -0.04381  -0.04037  -0.03810
 Alpha virt. eigenvalues --   -0.03775  -0.02152  -0.01960  -0.01485  -0.01300
 Alpha virt. eigenvalues --   -0.00708  -0.00580  -0.00314   0.00024   0.00906
 Alpha virt. eigenvalues --    0.01176   0.01786   0.01863   0.02616   0.02755
 Alpha virt. eigenvalues --    0.03301   0.03771   0.04011   0.04045   0.04692
 Alpha virt. eigenvalues --    0.04727   0.05000   0.05464   0.05703   0.05805
 Alpha virt. eigenvalues --    0.05959   0.06671   0.06692   0.06825   0.06947
 Alpha virt. eigenvalues --    0.07009   0.07238   0.07414   0.07618   0.07768
 Alpha virt. eigenvalues --    0.07787   0.08019   0.08105   0.08574   0.08619
 Alpha virt. eigenvalues --    0.08743   0.08989   0.09022   0.09280   0.09493
 Alpha virt. eigenvalues --    0.09866   0.09931   0.10178   0.10401   0.10778
 Alpha virt. eigenvalues --    0.10876   0.11061   0.11151   0.11368   0.11440
 Alpha virt. eigenvalues --    0.11783   0.11911   0.12082   0.12297   0.12334
 Alpha virt. eigenvalues --    0.12372   0.12532   0.12847   0.13036   0.13335
 Alpha virt. eigenvalues --    0.13680   0.13877   0.14052   0.14216   0.14272
 Alpha virt. eigenvalues --    0.14631   0.14677   0.15021   0.15058   0.15379
 Alpha virt. eigenvalues --    0.15524   0.15724   0.15976   0.16161   0.16178
 Alpha virt. eigenvalues --    0.16486   0.16803   0.16807   0.17152   0.17176
 Alpha virt. eigenvalues --    0.17309   0.17648   0.17720   0.18142   0.18569
 Alpha virt. eigenvalues --    0.18839   0.18882   0.18945   0.19078   0.19112
 Alpha virt. eigenvalues --    0.19365   0.19753   0.19769   0.19992   0.20213
 Alpha virt. eigenvalues --    0.20545   0.20699   0.20798   0.20960   0.21049
 Alpha virt. eigenvalues --    0.21282   0.21318   0.21640   0.21881   0.22318
 Alpha virt. eigenvalues --    0.22439   0.22913   0.23050   0.23274   0.23429
 Alpha virt. eigenvalues --    0.23795   0.24040   0.24257   0.24484   0.24798
 Alpha virt. eigenvalues --    0.25039   0.25308   0.25552   0.25697   0.26326
 Alpha virt. eigenvalues --    0.26612   0.26799   0.26968   0.27217   0.27225
 Alpha virt. eigenvalues --    0.27400   0.27748   0.27961   0.28116   0.28271
 Alpha virt. eigenvalues --    0.28657   0.28935   0.29451   0.29745   0.30027
 Alpha virt. eigenvalues --    0.30123   0.30377   0.30523   0.30849   0.31073
 Alpha virt. eigenvalues --    0.31108   0.31335   0.31580   0.32114   0.32420
 Alpha virt. eigenvalues --    0.32730   0.32762   0.33437   0.33761   0.34124
 Alpha virt. eigenvalues --    0.34629   0.34661   0.34856   0.34939   0.35345
 Alpha virt. eigenvalues --    0.35818   0.36170   0.36381   0.36836   0.37539
 Alpha virt. eigenvalues --    0.37672   0.38197   0.38345   0.38784   0.38929
 Alpha virt. eigenvalues --    0.39426   0.39569   0.39664   0.39830   0.40455
 Alpha virt. eigenvalues --    0.40686   0.40900   0.41325   0.42267   0.42416
 Alpha virt. eigenvalues --    0.42818   0.43035   0.43430   0.43659   0.43896
 Alpha virt. eigenvalues --    0.44061   0.44501   0.45103   0.45502   0.45811
 Alpha virt. eigenvalues --    0.46103   0.46516   0.46775   0.46849   0.47279
 Alpha virt. eigenvalues --    0.47582   0.47735   0.48076   0.48404   0.48678
 Alpha virt. eigenvalues --    0.49117   0.49176   0.49552   0.49841   0.50073
 Alpha virt. eigenvalues --    0.50517   0.51521   0.51710   0.52174   0.52236
 Alpha virt. eigenvalues --    0.52448   0.52560   0.52985   0.53576   0.53837
 Alpha virt. eigenvalues --    0.54478   0.55153   0.56333   0.56338   0.56540
 Alpha virt. eigenvalues --    0.57077   0.57295   0.57932   0.57969   0.58324
 Alpha virt. eigenvalues --    0.58753   0.58881   0.59831   0.59945   0.60275
 Alpha virt. eigenvalues --    0.60805   0.61291   0.61578   0.61868   0.62334
 Alpha virt. eigenvalues --    0.63046   0.63631   0.63886   0.64710   0.65448
 Alpha virt. eigenvalues --    0.65539   0.66226   0.66458   0.67702   0.68437
 Alpha virt. eigenvalues --    0.68772   0.68871   0.69034   0.69475   0.70166
 Alpha virt. eigenvalues --    0.71369   0.71905   0.72818   0.74063   0.74223
 Alpha virt. eigenvalues --    0.74675   0.74849   0.75687   0.75909   0.76682
 Alpha virt. eigenvalues --    0.76898   0.77410   0.77918   0.78352   0.78765
 Alpha virt. eigenvalues --    0.78818   0.79454   0.79676   0.79871   0.80630
 Alpha virt. eigenvalues --    0.80630   0.81224   0.82005   0.82561   0.83552
 Alpha virt. eigenvalues --    0.83569   0.83791   0.84950   0.85138   0.85213
 Alpha virt. eigenvalues --    0.85565   0.86352   0.87038   0.87234   0.87647
 Alpha virt. eigenvalues --    0.88250   0.88333   0.88584   0.89264   0.89491
 Alpha virt. eigenvalues --    0.90093   0.90853   0.91378   0.91423   0.92638
 Alpha virt. eigenvalues --    0.92867   0.92979   0.93280   0.93381   0.93794
 Alpha virt. eigenvalues --    0.94047   0.94142   0.95212   0.96551   0.96850
 Alpha virt. eigenvalues --    0.97318   0.97866   0.98381   0.98414   0.98741
 Alpha virt. eigenvalues --    0.99380   1.00214   1.00310   1.00391   1.01146
 Alpha virt. eigenvalues --    1.01227   1.02338   1.02412   1.02804   1.02880
 Alpha virt. eigenvalues --    1.03076   1.03689   1.03923   1.04427   1.04742
 Alpha virt. eigenvalues --    1.05748   1.05781   1.07157   1.07259   1.07567
 Alpha virt. eigenvalues --    1.07787   1.08120   1.09276   1.09957   1.10443
 Alpha virt. eigenvalues --    1.11966   1.12094   1.12876   1.13293   1.13667
 Alpha virt. eigenvalues --    1.13824   1.14876   1.16172   1.16832   1.17535
 Alpha virt. eigenvalues --    1.17845   1.18761   1.19872   1.20458   1.21529
 Alpha virt. eigenvalues --    1.21832   1.22090   1.22399   1.22771   1.23165
 Alpha virt. eigenvalues --    1.24110   1.24569   1.24931   1.26075   1.26176
 Alpha virt. eigenvalues --    1.26948   1.26991   1.27551   1.28482   1.28771
 Alpha virt. eigenvalues --    1.29411   1.30453   1.30812   1.30853   1.31116
 Alpha virt. eigenvalues --    1.31794   1.32440   1.32890   1.33343   1.33943
 Alpha virt. eigenvalues --    1.34124   1.34882   1.35647   1.36785   1.37686
 Alpha virt. eigenvalues --    1.38982   1.39467   1.39734   1.40103   1.40458
 Alpha virt. eigenvalues --    1.40789   1.41182   1.41554   1.41598   1.43056
 Alpha virt. eigenvalues --    1.43328   1.43608   1.43891   1.44669   1.44725
 Alpha virt. eigenvalues --    1.45466   1.46245   1.46770   1.47199   1.47825
 Alpha virt. eigenvalues --    1.49052   1.49481   1.49656   1.49858   1.50474
 Alpha virt. eigenvalues --    1.50869   1.50917   1.51234   1.51437   1.51602
 Alpha virt. eigenvalues --    1.52239   1.52986   1.54048   1.54926   1.55322
 Alpha virt. eigenvalues --    1.55750   1.55767   1.57610   1.57904   1.58048
 Alpha virt. eigenvalues --    1.58758   1.59970   1.60558   1.60693   1.61897
 Alpha virt. eigenvalues --    1.62185   1.62940   1.63314   1.63466   1.64960
 Alpha virt. eigenvalues --    1.66178   1.67205   1.68328   1.68572   1.69628
 Alpha virt. eigenvalues --    1.69695   1.70843   1.71332   1.71985   1.72256
 Alpha virt. eigenvalues --    1.73095   1.73742   1.74193   1.75498   1.75758
 Alpha virt. eigenvalues --    1.77185   1.77911   1.79233   1.80034   1.80607
 Alpha virt. eigenvalues --    1.81231   1.81748   1.82434   1.84007   1.85080
 Alpha virt. eigenvalues --    1.85387   1.85818   1.86042   1.86167   1.87475
 Alpha virt. eigenvalues --    1.87538   1.88587   1.88747   1.89076   1.89609
 Alpha virt. eigenvalues --    1.90129   1.90273   1.90520   1.90949   1.91284
 Alpha virt. eigenvalues --    1.91701   1.92150   1.92403   1.92673   1.93138
 Alpha virt. eigenvalues --    1.93774   1.94015   1.94449   1.94735   1.94971
 Alpha virt. eigenvalues --    1.95228   1.95526   1.95997   1.96269   1.96653
 Alpha virt. eigenvalues --    1.97733   1.97790   1.97801   1.98302   1.98341
 Alpha virt. eigenvalues --    1.98731   1.99199   1.99877   1.99966   2.00028
 Alpha virt. eigenvalues --    2.00142   2.00662   2.01280   2.01582   2.01614
 Alpha virt. eigenvalues --    2.01970   2.02055   2.02206   2.02225   2.02674
 Alpha virt. eigenvalues --    2.03386   2.03460   2.03763   2.03946   2.04480
 Alpha virt. eigenvalues --    2.04546   2.05281   2.05312   2.05839   2.05961
 Alpha virt. eigenvalues --    2.06664   2.07525   2.08247   2.08286   2.09328
 Alpha virt. eigenvalues --    2.09358   2.10281   2.10821   2.10846   2.11898
 Alpha virt. eigenvalues --    2.12280   2.12682   2.13564   2.13869   2.14062
 Alpha virt. eigenvalues --    2.14817   2.14843   2.16336   2.16592   2.17018
 Alpha virt. eigenvalues --    2.17792   2.19235   2.19672   2.21163   2.21897
 Alpha virt. eigenvalues --    2.23270   2.23540   2.24033   2.24962   2.25096
 Alpha virt. eigenvalues --    2.26825   2.27666   2.28853   2.29137   2.29572
 Alpha virt. eigenvalues --    2.30370   2.30720   2.31061   2.31507   2.31726
 Alpha virt. eigenvalues --    2.31934   2.32229   2.32442   2.32919   2.32997
 Alpha virt. eigenvalues --    2.33361   2.33374   2.34068   2.35165   2.36067
 Alpha virt. eigenvalues --    2.36462   2.36497   2.37807   2.38020   2.38682
 Alpha virt. eigenvalues --    2.39391   2.39986   2.40255   2.40409   2.40623
 Alpha virt. eigenvalues --    2.41091   2.41675   2.42063   2.43335   2.43633
 Alpha virt. eigenvalues --    2.48466   2.48864   2.50076   2.50322   2.50884
 Alpha virt. eigenvalues --    2.51532   2.53537   2.53828   2.54477   2.55304
 Alpha virt. eigenvalues --    2.56556   2.56995   2.57265   2.57622   2.58393
 Alpha virt. eigenvalues --    2.58928   2.59253   2.59717   2.59924   2.60474
 Alpha virt. eigenvalues --    2.61165   2.62183   2.62639   2.62918   2.63150
 Alpha virt. eigenvalues --    2.64241   2.64279   2.64882   2.65086   2.66423
 Alpha virt. eigenvalues --    2.67384   2.68124   2.68453   2.68975   2.69109
 Alpha virt. eigenvalues --    2.70059   2.70421   2.70654   2.71199   2.72401
 Alpha virt. eigenvalues --    2.72774   2.72782   2.73504   2.73813   2.74166
 Alpha virt. eigenvalues --    2.75094   2.76118   2.76157   2.76522   2.76783
 Alpha virt. eigenvalues --    2.77096   2.77549   2.77707   2.78998   2.79380
 Alpha virt. eigenvalues --    2.79909   2.80066   2.80527   2.82585   2.82941
 Alpha virt. eigenvalues --    2.83720   2.85868   2.86208   2.86285   2.86984
 Alpha virt. eigenvalues --    2.87125   2.87760   2.87911   2.88508   2.88732
 Alpha virt. eigenvalues --    2.90427   2.90850   2.92445   2.93405   2.95322
 Alpha virt. eigenvalues --    2.99363   2.99685   3.04104   3.05075   3.08506
 Alpha virt. eigenvalues --    3.08560   3.10161   3.10763   3.12405   3.12884
 Alpha virt. eigenvalues --    3.13077   3.13715   3.14491   3.15389   3.16034
 Alpha virt. eigenvalues --    3.16104   3.16672   3.17128   3.19058   3.20305
 Alpha virt. eigenvalues --    3.21498   3.21803   3.22405   3.22492   3.23327
 Alpha virt. eigenvalues --    3.23771   3.24254   3.27371   3.28258   3.29644
 Alpha virt. eigenvalues --    3.30896   3.31926   3.32300   3.33517   3.33569
 Alpha virt. eigenvalues --    3.33652   3.36345   3.38348   3.38366   3.39491
 Alpha virt. eigenvalues --    3.40680   3.42249   3.43113   3.43342   3.43948
 Alpha virt. eigenvalues --    3.44269   3.44905   3.49710   3.51385   3.54436
 Alpha virt. eigenvalues --    3.54635   3.54901   3.55380   3.55937   3.57655
 Alpha virt. eigenvalues --    3.58299   3.59174   3.64382   3.74199   3.93780
 Alpha virt. eigenvalues --    8.79300  11.34198  11.56534
          Condensed to atoms (all electrons):
 Mulliken charges:
               1
     1  Zn   0.740166
     2  O   -0.501792
     3  O   -0.472203
     4  O   -0.445281
     5  O   -0.511469
     6  C    0.432011
     7  C    0.463841
     8  Zn   0.533458
     9  O   -0.441422
    10  O   -0.514346
    11  O   -0.417684
    12  O   -0.458658
    13  C    0.440668
    14  C    0.427472
    15  H    0.065434
    16  H    0.078792
    17  H    0.075141
    18  H    0.076900
    19  C   -0.307567
    20  C    0.101245
    21  C   -0.569054
    22  C    0.064273
    23  C   -0.311239
    24  N    0.213327
    25  H    0.137680
    26  H    0.199053
    27  H    0.138576
    28  H    0.138628
    29  H    0.199245
    30  C   -0.305958
    31  C    0.119473
    32  C   -0.252228
    33  O   -0.306011
    34  C   -0.176943
    35  C    0.311103
    36  C   -0.367147
    37  O   -0.360705
    38  H    0.120877
    39  H    0.127999
    40  H    0.127518
    41  H    0.114349
    42  H    0.141832
    43  H    0.152653
    44  H    0.132556
    45  H    0.125567
    46  H    0.190092
    47  H    0.227975
    48  N   -0.711516
    49  C    0.077808
    50  C   -0.610115
    51  H    0.191734
    52  H    0.188319
    53  H    0.186069
    54  H    0.173811
    55  H    0.179943
    56  C    0.047646
    57  C   -0.558582
    58  H    0.195323
    59  H    0.191596
    60  H    0.196955
    61  H    0.178875
    62  H    0.173845
    63  C    0.119402
    64  C   -0.535605
    65  H    0.188077
    66  H    0.194317
    67  H    0.188453
    68  H    0.171322
    69  H    0.175164
    70  C    0.032561
    71  C   -0.541582
    72  H    0.187239
    73  H    0.182557
    74  H    0.191300
    75  H    0.177877
    76  H    0.167205
    77  Br  -0.698201
 Sum of Mulliken charges =  -0.00000
 Mulliken charges with hydrogens summed into heavy atoms:
               1
     1  Zn   0.740166
     2  O   -0.501792
     3  O   -0.472203
     4  O   -0.445281
     5  O   -0.511469
     6  C    0.497446
     7  C    0.542633
     8  Zn   0.533458
     9  O   -0.441422
    10  O   -0.514346
    11  O   -0.417684
    12  O   -0.458658
    13  C    0.515809
    14  C    0.504371
    19  C   -0.108513
    20  C    0.239822
    21  C   -0.431374
    22  C    0.202901
    23  C   -0.111994
    24  N    0.213327
    30  C   -0.057081
    31  C    0.246991
    32  C    0.003953
    33  O   -0.306011
    34  C    0.108266
    35  C    0.436671
    36  C    0.050921
    37  O   -0.360705
    48  N   -0.711516
    49  C    0.457861
    50  C   -0.070292
    56  C    0.434565
    57  C   -0.008907
    63  C    0.501795
    64  C   -0.000667
    70  C    0.402357
    71  C   -0.005199
    77  Br  -0.698201
 Electronic spatial extent (au):  <R**2>=         127422.3720
 Charge=             -0.0000 electrons
 Dipole moment (field-independent basis, Debye):
    X=             32.6327    Y=             42.4136    Z=            -48.9272  Tot=             72.5098
 Quadrupole moment (field-independent basis, Debye-Ang):
   XX=            397.5108   YY=            235.7289   ZZ=            375.1073
   XY=            569.3013   XZ=           -649.2483   YZ=           -550.6671
 Traceless Quadrupole moment (field-independent basis, Debye-Ang):
   XX=             61.3951   YY=           -100.3867   ZZ=             38.9916
   XY=            569.3013   XZ=           -649.2483   YZ=           -550.6671
 Octapole moment (field-independent basis, Debye-Ang**2):
  XXX=           5799.0312  YYY=           3094.8136  ZZZ=          -5890.7870  XYY=           5351.4559
  XXY=           6702.4665  XXZ=          -7793.2832  XZZ=           7172.0559  YZZ=           6003.9167
  YYZ=          -5282.8076  XYZ=          -7064.5786
 Hexadecapole moment (field-independent basis, Debye-Ang**3):
 XXXX=          49530.0631 YYYY=          16601.5242 ZZZZ=          44298.6057 XXXY=          73312.6295
 XXXZ=         -84822.3098 YYYX=          42879.6258 YYYZ=         -43088.1240 ZZZX=         -73155.3001
 ZZZY=         -61725.1783 XXYY=          61765.1233 XXZZ=          82734.2229 YYZZ=          55589.6428
 XXYZ=         -83217.2244 YYXZ=         -66149.8957 ZZXY=          76667.7600
 N-N= 4.754889994104D+03 E-N=-2.025501934099D+04  KE= 4.550937990803D+03
  Exact polarizability:   0.000   0.000   0.000   0.000   0.000   0.000
 Approx polarizability: 631.591  35.376 503.866 -52.570   4.756 525.514
   1 Symmetry operations used in ECPInt.
 ECPInt:  NShTT=   50403 NPrTT=  223596 LenC2=   25975 LenP2D=   70778.
 LDataN:  DoStor=T MaxTD1= 7 Len=  274
 Calling FoFJK, ICntrl=    100147 FMM=F ISym2X=0 I1Cent= 0 IOpClX= 0 NMat=1 NMatS=1 NMatT=0.
 -------------------------------------------------------------------
 Center     Atomic                   Forces (Hartrees/Bohr)
 Number     Number              X              Y              Z
 -------------------------------------------------------------------
      1       30          -0.000000000   -0.000000000   -0.000000000
      2        8          -0.000000000   -0.000000000   -0.000000000
      3        8           0.000000471   -0.000000195   -0.000000182
      4        8          -0.000000000   -0.000000000   -0.000000000
      5        8          -0.000000347    0.000000164   -0.000000190
      6        6          -0.000000000   -0.000000000   -0.000000000
      7        6          -0.000000000   -0.000000000   -0.000000000
      8       30           0.000000035   -0.000000053    0.000000053
      9        8           0.000000488    0.000000229    0.000000191
     10        8          -0.000000000   -0.000000000   -0.000000000
     11        8          -0.000000432   -0.000000153    0.000000162
     12        8          -0.000000000   -0.000000000   -0.000000000
     13        6          -0.000000000   -0.000000000   -0.000000000
     14        6          -0.000000000   -0.000000000   -0.000000000
     15        1          -0.000000000   -0.000000000   -0.000000000
     16        1          -0.000000000   -0.000000000   -0.000000000
     17        1          -0.000000000   -0.000000000   -0.000000000
     18        1          -0.000000000   -0.000000000   -0.000000000
     19        6          -0.000000000   -0.000000000   -0.000000000
     20        6          -0.000000000   -0.000000000   -0.000000000
     21        6          -0.000000000   -0.000000000   -0.000000000
     22        6          -0.000000000   -0.000000000   -0.000000000
     23        6          -0.000000000   -0.000000000   -0.000000000
     24        7          -0.000000000   -0.000000000   -0.000000000
     25        1          -0.000000000   -0.000000000   -0.000000000
     26        1          -0.000000000   -0.000000000   -0.000000000
     27        1          -0.000000000   -0.000000000   -0.000000000
     28        1          -0.000000000   -0.000000000   -0.000000000
     29        1          -0.000000000   -0.000000000   -0.000000000
     30        6           0.000001213   -0.000000088   -0.000000299
     31        6          -0.000000405    0.000000037    0.000000603
     32        6           0.000000560    0.000000201   -0.000000118
     33        8          -0.000000012    0.000000166   -0.000000103
     34        6          -0.000000137    0.000000180    0.000000145
     35        6          -0.000000334    0.000000229   -0.000000015
     36        6           0.000000175   -0.000000605   -0.000000577
     37        8           0.000000021   -0.000000092   -0.000000048
     38        1          -0.000000130   -0.000000002   -0.000000147
     39        1          -0.000000554    0.000000034   -0.000000045
     40        1          -0.000000185    0.000000036   -0.000000078
     41        1          -0.000000045   -0.000000262    0.000000121
     42        1          -0.000000391   -0.000000064   -0.000000051
     43        1          -0.000000042   -0.000000101    0.000000096
     44        1           0.000000220   -0.000000109   -0.000000012
     45        1           0.000000169   -0.000000045    0.000000052
     46        1          -0.000000339    0.000000486    0.000000280
     47        1           0.000000202   -0.000000038    0.000000213
     48        7          -0.000000000   -0.000000000   -0.000000000
     49        6          -0.000000000   -0.000000000   -0.000000000
     50        6          -0.000000000   -0.000000000   -0.000000000
     51        1          -0.000000000   -0.000000000   -0.000000000
     52        1          -0.000000000   -0.000000000   -0.000000000
     53        1          -0.000000000   -0.000000000   -0.000000000
     54        1          -0.000000000   -0.000000000   -0.000000000
     55        1          -0.000000000   -0.000000000   -0.000000000
     56        6          -0.000000000   -0.000000000   -0.000000000
     57        6          -0.000000000   -0.000000000   -0.000000000
     58        1          -0.000000000   -0.000000000   -0.000000000
     59        1          -0.000000000   -0.000000000   -0.000000000
     60        1          -0.000000000   -0.000000000   -0.000000000
     61        1          -0.000000000   -0.000000000   -0.000000000
     62        1          -0.000000000   -0.000000000   -0.000000000
     63        6          -0.000000000   -0.000000000   -0.000000000
     64        6          -0.000000000   -0.000000000   -0.000000000
     65        1          -0.000000000   -0.000000000   -0.000000000
     66        1          -0.000000000   -0.000000000   -0.000000000
     67        1          -0.000000000   -0.000000000   -0.000000000
     68        1          -0.000000000   -0.000000000   -0.000000000
     69        1          -0.000000000   -0.000000000   -0.000000000
     70        6          -0.000000000   -0.000000000   -0.000000000
     71        6          -0.000000000   -0.000000000   -0.000000000
     72        1          -0.000000000   -0.000000000   -0.000000000
     73        1          -0.000000000   -0.000000000   -0.000000000
     74        1          -0.000000000   -0.000000000   -0.000000000
     75        1          -0.000000000   -0.000000000   -0.000000000
     76        1          -0.000000000   -0.000000000   -0.000000000
     77       35           0.000000009    0.000000025   -0.000000009
 -------------------------------------------------------------------
 Cartesian Forces:  Max     0.000001213 RMS     0.000000158
 IRC-IRC-IRC-IRC-IRC-IRC-IRC-IRC-IRC-IRC-IRC-IRC-IRC-IRC-IRC-IRC-IRC-IRC
          ******** Start new reaction path calculation ********
   53 atoms frozen in the vibrational analysis.
 Supplied step size of   0.1000 bohr.
    Integration on MW PES will use step size of   0.3405 sqrt(amu)*bohr.
 Point Number:   0          Path Number:   1
 Calculating another point on the path.
 IRC-IRC-IRC-IRC-IRC-IRC-IRC-IRC-IRC-IRC-IRC-IRC-IRC-IRC-IRC-IRC-IRC-IRC
 Symmetry turned off by external request.
 Stoichiometry    C23H39BrN2O10Zn2
 Framework group  C1[X(C23H39BrN2O10Zn2)]
 Deg. of freedom   225
 Full point group                 C1      NOp   1
                          Input orientation:                          
 ---------------------------------------------------------------------
 Center     Atomic      Atomic             Coordinates (Angstroms)
 Number     Number       Type             X           Y           Z
 ---------------------------------------------------------------------
      1         30           0       -4.694489   -2.528905    2.326317
      2          8           0       -4.600022   -0.931734    3.631360
      3          8           0       -2.342413   -0.862083    3.537698
      4          8           0       -3.771400   -1.279734    0.828231
      5          8           0       -1.523776   -1.106692    0.682180
      6          6           0       -3.461226   -0.468815    3.942742
      7          6           0       -2.703539   -0.842639    0.321243
      8         30           0       -1.268981   -2.436187    2.214235
      9          8           0       -2.281732   -3.991994    0.974678
     10          8           0       -4.539354   -4.115561    1.014246
     11          8           0       -1.331397   -3.684676    3.802070
     12          8           0       -3.593209   -3.694425    3.770586
     13          6           0       -3.384903   -4.484776    0.641370
     14          6           0       -2.467582   -4.041605    4.218740
     15          1           0       -3.455408    0.383834    4.642316
     16          1           0       -2.790739   -0.146153   -0.527563
     17          1           0       -3.347035   -5.335536   -0.059501
     18          1           0       -2.451967   -4.740511    5.069891
     19          6           0       -7.533844   -1.751514    3.144391
     20          6           0       -8.925190   -1.779770    3.209727
     21          6           0       -9.615492   -2.737870    2.465207
     22          6           0       -8.889458   -3.635442    1.680343
     23          6           0       -7.499316   -3.544901    1.666524
     24          7           0       -6.834486   -2.619084    2.386057
     25          1           0      -10.700185   -2.784227    2.496111
     26          1           0       -6.942948   -1.030371    3.700081
     27          1           0       -9.449248   -1.063042    3.832903
     28          1           0       -9.385065   -4.395750    1.086214
     29          1           0       -6.881618   -4.214494    1.076539
     30          6           0        0.032106    1.239013    6.922461
     31          6           0        0.950410    1.130326    5.958369
     32          6           0        0.642719    1.084179    4.490183
     33          8           0        1.328012   -0.014427    3.911364
     34          6           0        1.259447   -0.017609    2.485555
     35          6           0        1.719721   -1.368305    1.994425
     36          6           0        1.566285   -1.686505    0.582771
     37          8           0        0.771644   -2.434069    1.990471
     38          1           0        0.310503    1.298010    7.971344
     39          1           0       -1.031184    1.261302    6.693974
     40          1           0        2.009136    1.081881    6.213162
     41          1           0        0.985613    2.023984    4.017290
     42          1           0       -0.440161    0.991626    4.317807
     43          1           0        1.920268    0.754417    2.062984
     44          1           0        0.232736    0.174307    2.144803
     45          1           0        2.665115   -1.661758    2.459896
     46          1           0        2.145640   -2.487402    0.152968
     47          1           0        0.761578   -1.239577    0.019716
     48          7           0        9.323654    7.878593   -9.418327
     49          6           0        8.775192    8.666291  -10.627481
     50          6           0        7.270430    8.622886  -10.872553
     51          1           0        9.313044    8.270702  -11.501210
     52          1           0        9.078220    9.701899  -10.450984
     53          1           0        7.103577    9.157016  -11.813418
     54          1           0        6.883739    7.613699  -11.013723
     55          1           0        6.683343    9.128889  -10.100249
     56          6           0        8.391804    8.049291   -8.231660
     57          6           0        8.839774    7.404936   -6.922216
     58          1           0        7.428152    7.640829   -8.531655
     59          1           0        8.266006    9.128533   -8.103645
     60          1           0        8.060745    7.595195   -6.177194
     61          1           0        8.950718    6.321056   -7.006041
     62          1           0        9.770233    7.824714   -6.532814
     63          6           0       10.688373    8.483285   -9.054888
     64          6           0       11.654868    8.714255  -10.214541
     65          1           0       11.128756    7.801136   -8.326361
     66          1           0       10.466507    9.425674   -8.544057
     67          1           0       12.641714    8.907473   -9.780939
     68          1           0       11.730791    7.864246  -10.899138
     69          1           0       11.379340    9.583125  -10.815579
     70          6           0        9.559677    6.396005   -9.755568
     71          6           0        8.331274    5.543955  -10.042216
     72          1           0       10.119726    5.997221   -8.907378
     73          1           0       10.186439    6.391655  -10.656259
     74          1           0        8.684305    4.510323  -10.113993
     75          1           0        7.563082    5.575454   -9.262716
     76          1           0        7.896991    5.784870  -11.013421
     77         35           0        3.235446   -0.054933   -0.770192
 ---------------------------------------------------------------------
 Rotational constants (GHZ):           0.0992348           0.0112765           0.0107714
 Basis read from rwf:  (5D, 7F)
 Pseudo-potential data read from rwf file.
   893 basis functions,  1558 primitive gaussians,   934 cartesian basis functions
   165 alpha electrons      165 beta electrons
       nuclear repulsion energy      4754.5840779973 Hartrees.
 NAtoms=   77 NActive=   77 NUniq=   77 SFac= 1.00D+00 NAtFMM=   60 NAOKFM=T Big=T
 Integral buffers will be    131072 words long.
 Raffenetti 2 integral format.
 Two-electron integral symmetry is turned off.
 One-electron integrals computed using PRISM.
   1 Symmetry operations used in ECPInt.
 ECPInt:  NShTT=   50403 NPrTT=  223596 LenC2=   25977 LenP2D=   70781.
 LDataN:  DoStor=T MaxTD1= 5 Len=  102
 NBasis=   893 RedAO= T EigKep=  7.00D-06  NBF=   893
 NBsUse=   893 1.00D-06 EigRej= -1.00D+00 NBFU=   893
 Initial guess from the checkpoint file:  "IRC_3.chk"
 B after Tr=    -6.128708   -4.670087    4.322292
         Rot=    1.000000    0.000002    0.000004    0.000002 Ang=   0.00 deg.
 ExpMin= 3.50D-02 ExpMax= 5.74D+05 ExpMxC= 5.74D+03 IAcc=3 IRadAn=         5 AccDes= 0.00D+00
 Harris functional with IExCor=  402 and IRadAn=       5 diagonalized for initial guess.
 HarFok:  IExCor=  402 AccDes= 0.00D+00 IRadAn=         5 IDoV= 1 UseB2=F ITyADJ=14
 ICtDFT=  3500011 ScaDFX=  1.000000  1.000000  1.000000  1.000000
 FoFCou: FMM=F IPFlag=           0 FMFlag=      100000 FMFlg1=        2001
         NFxFlg=           0 DoJE=T BraDBF=F KetDBF=T FulRan=T
         wScrn=  0.000000 ICntrl=       500 IOpCl=  0 I1Cent=   200000004 NGrid=           0
         NMat0=    1 NMatS0=      1 NMatT0=    0 NMatD0=    1 NMtDS0=    0 NMtDT0=    0
 Symmetry not used in FoFCou.
 Gradient too large for Newton-Raphson -- use scaled steepest descent instead.
 Gradient too large for Newton-Raphson -- use scaled steepest descent instead.
 Gradient too large for Newton-Raphson -- use scaled steepest descent instead.
     Accept linear search using points  1 and  2.
 Gradient too large for Newton-Raphson -- use scaled steepest descent instead.
     Accept linear search using points  1 and  2.
 Gradient too large for Newton-Raphson -- use scaled steepest descent instead.
 Gradient too large for Newton-Raphson -- use scaled steepest descent instead.
 Gradient too large for Newton-Raphson -- use scaled steepest descent instead.
 Restarting incremental Fock formation.
     Accept linear search using points  1 and  2.
 Gradient too large for Newton-Raphson -- use scaled steepest descent instead.
 LinEq1:  Iter=  0 NonCon=     1 RMS=4.13D-05 Max=7.27D-03 NDo=     1
 AX will form     1 AO Fock derivatives at one time.
 LinEq1:  Iter=  1 NonCon=     1 RMS=1.95D-05 Max=1.28D-03 NDo=     1
 LinEq1:  Iter=  2 NonCon=     1 RMS=1.10D-05 Max=8.16D-04 NDo=     1
 LinEq1:  Iter=  3 NonCon=     1 RMS=7.85D-06 Max=3.60D-04 NDo=     1
 LinEq1:  Iter=  4 NonCon=     1 RMS=3.92D-06 Max=2.94D-04 NDo=     1
 LinEq1:  Iter=  5 NonCon=     1 RMS=3.64D-06 Max=3.38D-04 NDo=     1
 LinEq1:  Iter=  6 NonCon=     1 RMS=2.06D-06 Max=9.03D-05 NDo=     1
 LinEq1:  Iter=  7 NonCon=     1 RMS=1.25D-06 Max=5.22D-05 NDo=     1
 LinEq1:  Iter=  8 NonCon=     1 RMS=8.91D-07 Max=5.99D-05 NDo=     1
 LinEq1:  Iter=  9 NonCon=     1 RMS=6.22D-07 Max=3.39D-05 NDo=     1
 LinEq1:  Iter= 10 NonCon=     1 RMS=4.22D-07 Max=2.15D-05 NDo=     1
 LinEq1:  Iter= 11 NonCon=     1 RMS=2.64D-07 Max=1.69D-05 NDo=     1
 LinEq1:  Iter= 12 NonCon=     1 RMS=1.38D-07 Max=1.25D-05 NDo=     1
 LinEq1:  Iter= 13 NonCon=     1 RMS=9.12D-08 Max=8.14D-06 NDo=     1
 LinEq1:  Iter= 14 NonCon=     1 RMS=5.84D-08 Max=4.47D-06 NDo=     1
 LinEq1:  Iter= 15 NonCon=     1 RMS=3.42D-08 Max=3.30D-06 NDo=     1
 LinEq1:  Iter= 16 NonCon=     1 RMS=2.78D-08 Max=1.76D-06 NDo=     1
 LinEq1:  Iter= 17 NonCon=     1 RMS=1.34D-08 Max=1.13D-06 NDo=     1
 LinEq1:  Iter= 18 NonCon=     1 RMS=1.19D-08 Max=1.21D-06 NDo=     1
 LinEq1:  Iter= 19 NonCon=     0 RMS=5.74D-09 Max=3.94D-07 NDo=     1
 Linear equations converged to 4.901D-08 4.901D-07 after    19 iterations.
     Minimum is close to point  2 DX=  6.89D-03 DF= -5.02D-09 DXR=  6.84D-03 DFR=  4.68D-05 which will be used.
 LinEq1:  Iter=  0 NonCon=     1 RMS=6.46D-07 Max=1.20D-04 NDo=     1
 LinEq1:  Iter=  1 NonCon=     1 RMS=2.60D-07 Max=1.51D-05 NDo=     1
 LinEq1:  Iter=  2 NonCon=     1 RMS=2.12D-07 Max=1.48D-05 NDo=     1
 LinEq1:  Iter=  3 NonCon=     1 RMS=1.21D-07 Max=4.70D-06 NDo=     1
 LinEq1:  Iter=  4 NonCon=     1 RMS=6.65D-08 Max=3.88D-06 NDo=     1
 LinEq1:  Iter=  5 NonCon=     1 RMS=5.24D-08 Max=3.63D-06 NDo=     1
 LinEq1:  Iter=  6 NonCon=     1 RMS=3.22D-08 Max=1.38D-06 NDo=     1
 LinEq1:  Iter=  7 NonCon=     1 RMS=2.30D-08 Max=1.08D-06 NDo=     1
 LinEq1:  Iter=  8 NonCon=     1 RMS=1.26D-08 Max=5.76D-07 NDo=     1
 LinEq1:  Iter=  9 NonCon=     1 RMS=9.51D-09 Max=7.30D-07 NDo=     1
 LinEq1:  Iter= 10 NonCon=     1 RMS=5.87D-09 Max=2.81D-07 NDo=     1
 LinEq1:  Iter= 11 NonCon=     1 RMS=4.13D-09 Max=3.67D-07 NDo=     1
 LinEq1:  Iter= 12 NonCon=     1 RMS=3.01D-09 Max=2.91D-07 NDo=     1
 LinEq1:  Iter= 13 NonCon=     1 RMS=1.85D-09 Max=1.68D-07 NDo=     1
 LinEq1:  Iter= 14 NonCon=     1 RMS=1.11D-09 Max=1.09D-07 NDo=     1
 LinEq1:  Iter= 15 NonCon=     1 RMS=7.72D-10 Max=6.69D-08 NDo=     1
 LinEq1:  Iter= 16 NonCon=     1 RMS=4.04D-10 Max=3.71D-08 NDo=     1
 LinEq1:  Iter= 17 NonCon=     1 RMS=2.79D-10 Max=2.38D-08 NDo=     1
 LinEq1:  Iter= 18 NonCon=     1 RMS=2.21D-10 Max=2.33D-08 NDo=     1
 LinEq1:  Iter= 19 NonCon=     1 RMS=1.29D-10 Max=1.31D-08 NDo=     1
 LinEq1:  Iter= 20 NonCon=     0 RMS=5.19D-11 Max=4.87D-09 NDo=     1
 Linear equations converged to 1.125D-09 1.125D-08 after    20 iterations.
 SCF Done:  E(RB3LYP) =  -4464.46194599     a.u. after   11 cycles
            Convg  =    0.1853D-07                    67 Fock formations.
              S**2 =  0.0000                  -V/T =  1.9810
 DoSCS=F DFT=T ScalE2(SS,OS)=  1.000000  1.000000
 Range of M.O.s used for correlation:     1   893
 NBasis=   893 NAE=   165 NBE=   165 NFC=     0 NFV=     0
 NROrb=    893 NOA=   165 NOB=   165 NVA=   728 NVB=   728

 **** Warning!!: The largest alpha MO coefficient is  0.88145918D+02


 **** Warning!!: The smallest alpha delta epsilon is  0.30084595D-01

 Symmetrizing basis deriv contribution to polar:
 IMax=3 JMax=2 DiffMx= 0.00D+00
   1 Symmetry operations used in ECPInt.
 ECPInt:  NShTT=   50403 NPrTT=  223596 LenC2=   25977 LenP2D=   70781.
 LDataN:  DoStor=T MaxTD1= 6 Len=  172
 Calling FoFJK, ICntrl=      2147 FMM=T ISym2X=0 I1Cent= 0 IOpClX= 0 NMat=1 NMatS=1 NMatT=0.
 -------------------------------------------------------------------
 Center     Atomic                   Forces (Hartrees/Bohr)
 Number     Number              X              Y              Z
 -------------------------------------------------------------------
      1       30          -0.000000000   -0.000000000   -0.000000000
      2        8          -0.000000000   -0.000000000   -0.000000000
      3        8           0.000024734   -0.000055084   -0.000005336
      4        8          -0.000000000   -0.000000000   -0.000000000
      5        8          -0.000000371   -0.000072381    0.000125107
      6        6          -0.000000000   -0.000000000   -0.000000000
      7        6          -0.000000000   -0.000000000   -0.000000000
      8       30          -0.001366308   -0.000024766   -0.000061686
      9        8           0.000025481    0.000014781    0.000051769
     10        8          -0.000000000   -0.000000000   -0.000000000
     11        8           0.000061275    0.000085351   -0.000053491
     12        8          -0.000000000   -0.000000000   -0.000000000
     13        6          -0.000000000   -0.000000000   -0.000000000
     14        6          -0.000000000   -0.000000000   -0.000000000
     15        1          -0.000000000   -0.000000000   -0.000000000
     16        1          -0.000000000   -0.000000000   -0.000000000
     17        1          -0.000000000   -0.000000000   -0.000000000
     18        1          -0.000000000   -0.000000000   -0.000000000
     19        6          -0.000000000   -0.000000000   -0.000000000
     20        6          -0.000000000   -0.000000000   -0.000000000
     21        6          -0.000000000   -0.000000000   -0.000000000
     22        6          -0.000000000   -0.000000000   -0.000000000
     23        6          -0.000000000   -0.000000000   -0.000000000
     24        7          -0.000000000   -0.000000000   -0.000000000
     25        1          -0.000000000   -0.000000000   -0.000000000
     26        1          -0.000000000   -0.000000000   -0.000000000
     27        1          -0.000000000   -0.000000000   -0.000000000
     28        1          -0.000000000   -0.000000000   -0.000000000
     29        1          -0.000000000   -0.000000000   -0.000000000
     30        6          -0.000023686    0.000002444    0.000062284
     31        6          -0.000014307    0.000069028    0.000075833
     32        6          -0.000018170    0.000146960    0.000101873
     33        8          -0.000107674    0.000150270    0.000217944
     34        6           0.000076296    0.000148814    0.000179531
     35        6           0.000874311    0.000674693    0.000554910
     36        6          -0.002921008   -0.003249905    0.002487631
     37        8           0.000663486    0.000255246   -0.002533618
     38        1          -0.000003836   -0.000003655    0.000005815
     39        1          -0.000002267    0.000002832    0.000003474
     40        1          -0.000000950    0.000006024    0.000005181
     41        1           0.000003936    0.000010095    0.000006629
     42        1          -0.000002962    0.000016579    0.000006588
     43        1           0.000004806    0.000027537    0.000000099
     44        1           0.000014658   -0.000009471   -0.000005756
     45        1           0.000032775   -0.000023571    0.000049363
     46        1          -0.000188594    0.000209326    0.000166368
     47        1           0.000237136   -0.000149213    0.000202276
     48        7          -0.000000000   -0.000000000   -0.000000000
     49        6          -0.000000000   -0.000000000   -0.000000000
     50        6          -0.000000000   -0.000000000   -0.000000000
     51        1          -0.000000000   -0.000000000   -0.000000000
     52        1          -0.000000000   -0.000000000   -0.000000000
     53        1          -0.000000000   -0.000000000   -0.000000000
     54        1          -0.000000000   -0.000000000   -0.000000000
     55        1          -0.000000000   -0.000000000   -0.000000000
     56        6          -0.000000000   -0.000000000   -0.000000000
     57        6          -0.000000000   -0.000000000   -0.000000000
     58        1          -0.000000000   -0.000000000   -0.000000000
     59        1          -0.000000000   -0.000000000   -0.000000000
     60        1          -0.000000000   -0.000000000   -0.000000000
     61        1          -0.000000000   -0.000000000   -0.000000000
     62        1          -0.000000000   -0.000000000   -0.000000000
     63        6          -0.000000000   -0.000000000   -0.000000000
     64        6          -0.000000000   -0.000000000   -0.000000000
     65        1          -0.000000000   -0.000000000   -0.000000000
     66        1          -0.000000000   -0.000000000   -0.000000000
     67        1          -0.000000000   -0.000000000   -0.000000000
     68        1          -0.000000000   -0.000000000   -0.000000000
     69        1          -0.000000000   -0.000000000   -0.000000000
     70        6          -0.000000000   -0.000000000   -0.000000000
     71        6          -0.000000000   -0.000000000   -0.000000000
     72        1          -0.000000000   -0.000000000   -0.000000000
     73        1          -0.000000000   -0.000000000   -0.000000000
     74        1          -0.000000000   -0.000000000   -0.000000000
     75        1          -0.000000000   -0.000000000   -0.000000000
     76        1          -0.000000000   -0.000000000   -0.000000000
     77       35           0.001810044    0.001751612   -0.001622086
 -------------------------------------------------------------------
 Cartesian Forces:  Max     0.003249905 RMS     0.000441588
 IRC-IRC-IRC-IRC-IRC-IRC-IRC-IRC-IRC-IRC-IRC-IRC-IRC-IRC-IRC-IRC-IRC-IRC
   53 atoms frozen in the vibrational analysis.
 Pt  1 Step number   1 out of a maximum of  20
 Modified Bulirsch-Stoer Extrapolation Cycles:
    EPS =    0.000010000000000
      PEZero:  N= 2 I= 1 D=  8.87D-04 Err=  1.48D-03
      PEZero:  N= 3 I= 2 D=  8.87D-04 Err=  9.68D-04
      PEZero:  N= 3 I= 1 D=  1.77D-03 Err=  2.72D-05
      PEZero:  N= 4 I= 3 D=  4.43D-04 Err=  7.23D-04
      PEZero:  N= 4 I= 2 D=  1.33D-03 Err=  3.86D-06
[...]
     72          1           0       10.119726    5.997221   -8.907378
     73          1           0       10.186439    6.391655  -10.656259
     74          1           0        8.684305    4.510323  -10.113993
     75          1           0        7.563082    5.575454   -9.262716
     76          1           0        7.896991    5.784870  -11.013421
     77         35           0        3.125091   -0.135431   -0.595756
 ---------------------------------------------------------------------
 Rotational constants (GHZ):           0.1001516           0.0113192           0.0108045

 **********************************************************************

            Population analysis using the SCF Density.

 **********************************************************************

 Alpha  occ. eigenvalues -- -482.57833 -61.66329 -56.23228 -56.22948 -56.22937
 Alpha  occ. eigenvalues --  -19.06425 -19.05933 -19.05887 -19.05329 -19.05258
 Alpha  occ. eigenvalues --  -19.04639 -19.04627 -19.04536 -19.04523 -18.98438
 Alpha  occ. eigenvalues --  -14.57770 -14.34330 -10.36567 -10.36356 -10.36282
 Alpha  occ. eigenvalues --  -10.35924 -10.30466 -10.30119 -10.30043 -10.29852
 Alpha  occ. eigenvalues --  -10.22083 -10.21985 -10.21900 -10.21290 -10.21186
 Alpha  occ. eigenvalues --  -10.21183 -10.20117 -10.18804 -10.18802 -10.15580
 Alpha  occ. eigenvalues --  -10.14111 -10.13347 -10.13036 -10.12884 -10.12157
 Alpha  occ. eigenvalues --   -8.43390  -6.44833  -6.43845  -6.43832  -2.56820
 Alpha  occ. eigenvalues --   -2.56547  -2.56537  -2.55750  -2.55750  -1.12766
 Alpha  occ. eigenvalues --   -0.98408  -0.97990  -0.97832  -0.97290  -0.94934
 Alpha  occ. eigenvalues --   -0.93986  -0.91060  -0.90855  -0.90669  -0.89784
 Alpha  occ. eigenvalues --   -0.89529  -0.89475  -0.88951  -0.85598  -0.85187
 Alpha  occ. eigenvalues --   -0.79813  -0.78255  -0.77603  -0.76615  -0.75475
 Alpha  occ. eigenvalues --   -0.72125  -0.69921  -0.69620  -0.64255  -0.64134
 Alpha  occ. eigenvalues --   -0.64109  -0.62439  -0.62308  -0.62065  -0.59904
 Alpha  occ. eigenvalues --   -0.59786  -0.58443  -0.56107  -0.55922  -0.55714
 Alpha  occ. eigenvalues --   -0.54769  -0.53731  -0.53388  -0.52821  -0.52808
 Alpha  occ. eigenvalues --   -0.52396  -0.52303  -0.52061  -0.51662  -0.51506
 Alpha  occ. eigenvalues --   -0.51168  -0.51041  -0.50979  -0.50581  -0.50341
 Alpha  occ. eigenvalues --   -0.50216  -0.49975  -0.49907  -0.49629  -0.49130
 Alpha  occ. eigenvalues --   -0.48909  -0.48874  -0.48811  -0.48118  -0.47962
 Alpha  occ. eigenvalues --   -0.47277  -0.47262  -0.47054  -0.46791  -0.46584
 Alpha  occ. eigenvalues --   -0.45823  -0.42201  -0.41913  -0.41790  -0.40947
 Alpha  occ. eigenvalues --   -0.40140  -0.39601  -0.39463  -0.39106  -0.38798
 Alpha  occ. eigenvalues --   -0.38648  -0.38016  -0.37544  -0.37523  -0.36708
 Alpha  occ. eigenvalues --   -0.35241  -0.35185  -0.35033  -0.34780  -0.33687
 Alpha  occ. eigenvalues --   -0.33548  -0.33320  -0.31719  -0.30774  -0.30357
 Alpha  occ. eigenvalues --   -0.30028  -0.29033  -0.28503  -0.27040  -0.26084
 Alpha  occ. eigenvalues --   -0.25465  -0.24483  -0.24018  -0.22104  -0.21724
 Alpha  occ. eigenvalues --   -0.21328  -0.20837  -0.20598  -0.20389  -0.20226
 Alpha  occ. eigenvalues --   -0.20018  -0.19852  -0.19573  -0.19490  -0.19342
 Alpha  occ. eigenvalues --   -0.18979  -0.17668  -0.16990  -0.13741  -0.13119
 Alpha virt. eigenvalues --   -0.10180  -0.08492  -0.08392  -0.08220  -0.06236
 Alpha virt. eigenvalues --   -0.06124  -0.05083  -0.04799  -0.04430  -0.04246
 Alpha virt. eigenvalues --   -0.02928  -0.02571  -0.02356  -0.01715  -0.01153
 Alpha virt. eigenvalues --   -0.00980  -0.00718  -0.00646  -0.00399   0.00462
 Alpha virt. eigenvalues --    0.00747   0.01484   0.02159   0.02347   0.02375
 Alpha virt. eigenvalues --    0.02892   0.03326   0.03625   0.04339   0.04609
 Alpha virt. eigenvalues --    0.04992   0.05205   0.05566   0.05709   0.05775
 Alpha virt. eigenvalues --    0.06269   0.06568   0.07170   0.07230   0.07391
 Alpha virt. eigenvalues --    0.07559   0.07608   0.07750   0.07844   0.08167
 Alpha virt. eigenvalues --    0.08179   0.08429   0.08636   0.08885   0.09081
 Alpha virt. eigenvalues --    0.09238   0.09310   0.09525   0.09800   0.09884
 Alpha virt. eigenvalues --    0.09990   0.10445   0.10463   0.10719   0.10905
 Alpha virt. eigenvalues --    0.10912   0.10999   0.11478   0.11516   0.11547
 Alpha virt. eigenvalues --    0.11806   0.11963   0.12409   0.12542   0.12582
 Alpha virt. eigenvalues --    0.12934   0.13067   0.13148   0.13302   0.13367
 Alpha virt. eigenvalues --    0.13423   0.13821   0.13996   0.14281   0.14542
 Alpha virt. eigenvalues --    0.14894   0.15000   0.15113   0.15422   0.15632
 Alpha virt. eigenvalues --    0.15782   0.15964   0.16291   0.16387   0.16760
 Alpha virt. eigenvalues --    0.16787   0.16916   0.17152   0.17231   0.17915
 Alpha virt. eigenvalues --    0.18043   0.18173   0.18226   0.18355   0.18436
 Alpha virt. eigenvalues --    0.19067   0.19391   0.19643   0.19792   0.19957
 Alpha virt. eigenvalues --    0.20070   0.20297   0.20323   0.20400   0.20452
 Alpha virt. eigenvalues --    0.20599   0.20727   0.20872   0.21304   0.21626
 Alpha virt. eigenvalues --    0.21785   0.22052   0.22354   0.22494   0.22915
 Alpha virt. eigenvalues --    0.23226   0.23421   0.24127   0.24184   0.24340
 Alpha virt. eigenvalues --    0.24459   0.24916   0.25103   0.25153   0.25230
 Alpha virt. eigenvalues --    0.25350   0.25827   0.26375   0.26700   0.26824
 Alpha virt. eigenvalues --    0.26942   0.27329   0.27688   0.27844   0.27955
 Alpha virt. eigenvalues --    0.28174   0.28266   0.28616   0.29003   0.29087
 Alpha virt. eigenvalues --    0.29567   0.29799   0.29963   0.30283   0.30652
 Alpha virt. eigenvalues --    0.30810   0.31272   0.31603   0.31777   0.31907
 Alpha virt. eigenvalues --    0.32033   0.32313   0.32440   0.32912   0.33337
 Alpha virt. eigenvalues --    0.33434   0.33798   0.34250   0.34273   0.34807
 Alpha virt. eigenvalues --    0.34983   0.35492   0.35726   0.36042   0.36290
 Alpha virt. eigenvalues --    0.36922   0.37302   0.37553   0.38170   0.38537
 Alpha virt. eigenvalues --    0.38660   0.39257   0.39661   0.39752   0.39932
 Alpha virt. eigenvalues --    0.40167   0.40611   0.40926   0.41175   0.41376
 Alpha virt. eigenvalues --    0.41959   0.42270   0.42411   0.43045   0.43490
 Alpha virt. eigenvalues --    0.43649   0.44209   0.44478   0.44637   0.44940
 Alpha virt. eigenvalues --    0.45578   0.46045   0.46115   0.46597   0.47261
 Alpha virt. eigenvalues --    0.47458   0.47682   0.48038   0.48239   0.48362
 Alpha virt. eigenvalues --    0.48745   0.48836   0.49150   0.49220   0.49427
 Alpha virt. eigenvalues --    0.50191   0.50456   0.50651   0.51020   0.51327
 Alpha virt. eigenvalues --    0.51700   0.52143   0.52512   0.52766   0.53285
 Alpha virt. eigenvalues --    0.53721   0.54052   0.54310   0.54820   0.55614
 Alpha virt. eigenvalues --    0.55906   0.55935   0.56123   0.56614   0.56663
 Alpha virt. eigenvalues --    0.57455   0.57539   0.57969   0.58338   0.58466
 Alpha virt. eigenvalues --    0.58673   0.59392   0.59411   0.59834   0.60074
 Alpha virt. eigenvalues --    0.60706   0.60914   0.61017   0.61140   0.61367
 Alpha virt. eigenvalues --    0.62207   0.62936   0.63262   0.63471   0.64415
 Alpha virt. eigenvalues --    0.64789   0.65109   0.65885   0.67397   0.68435
 Alpha virt. eigenvalues --    0.69070   0.69519   0.69874   0.70544   0.70925
 Alpha virt. eigenvalues --    0.72299   0.72721   0.73662   0.73676   0.74207
 Alpha virt. eigenvalues --    0.75425   0.75658   0.76479   0.76508   0.76790
 Alpha virt. eigenvalues --    0.76851   0.77633   0.77886   0.78374   0.78556
 Alpha virt. eigenvalues --    0.79204   0.79290   0.79991   0.80207   0.80943
 Alpha virt. eigenvalues --    0.81684   0.81888   0.82159   0.83112   0.83385
 Alpha virt. eigenvalues --    0.83887   0.84729   0.84799   0.85154   0.85979
 Alpha virt. eigenvalues --    0.86625   0.86984   0.87229   0.87756   0.87896
 Alpha virt. eigenvalues --    0.88187   0.89043   0.89143   0.89688   0.90003
 Alpha virt. eigenvalues --    0.90961   0.91473   0.92228   0.92250   0.92898
 Alpha virt. eigenvalues --    0.93703   0.93706   0.94164   0.94678   0.94724
 Alpha virt. eigenvalues --    0.95208   0.96453   0.96463   0.97674   0.97968
 Alpha virt. eigenvalues --    0.98262   0.98823   0.99420   0.99800   0.99890
 Alpha virt. eigenvalues --    1.00298   1.00564   1.00683   1.01539   1.02399
 Alpha virt. eigenvalues --    1.02496   1.02585   1.03261   1.03434   1.03604
 Alpha virt. eigenvalues --    1.04049   1.04299   1.04857   1.05189   1.06463
 Alpha virt. eigenvalues --    1.06769   1.06922   1.07145   1.07163   1.08039
 Alpha virt. eigenvalues --    1.08816   1.09098   1.10559   1.11412   1.11566
 Alpha virt. eigenvalues --    1.11971   1.12469   1.12870   1.13397   1.13432
 Alpha virt. eigenvalues --    1.14593   1.16437   1.17292   1.18235   1.18640
 Alpha virt. eigenvalues --    1.18800   1.20394   1.20538   1.21720   1.22365
 Alpha virt. eigenvalues --    1.22556   1.23073   1.23688   1.24220   1.24940
 Alpha virt. eigenvalues --    1.25204   1.25769   1.25924   1.26324   1.27711
 Alpha virt. eigenvalues --    1.27915   1.28346   1.28777   1.29523   1.30406
 Alpha virt. eigenvalues --    1.30694   1.31268   1.31588   1.31932   1.32800
 Alpha virt. eigenvalues --    1.33035   1.34290   1.34337   1.35051   1.35247
 Alpha virt. eigenvalues --    1.35708   1.35842   1.36205   1.37687   1.39988
 Alpha virt. eigenvalues --    1.40288   1.40535   1.41100   1.41157   1.41433
 Alpha virt. eigenvalues --    1.41979   1.42414   1.42904   1.43473   1.43648
 Alpha virt. eigenvalues --    1.44047   1.44261   1.45106   1.46247   1.46479
 Alpha virt. eigenvalues --    1.46783   1.47126   1.48090   1.49005   1.49416
 Alpha virt. eigenvalues --    1.49626   1.50849   1.51036   1.51340   1.51599
 Alpha virt. eigenvalues --    1.51841   1.52116   1.52513   1.52977   1.53637
 Alpha virt. eigenvalues --    1.53985   1.54762   1.55339   1.56290   1.57045
 Alpha virt. eigenvalues --    1.57356   1.57488   1.58333   1.59520   1.59831
 Alpha virt. eigenvalues --    1.60284   1.61225   1.62207   1.62778   1.63862
 Alpha virt. eigenvalues --    1.64463   1.65593   1.65969   1.66415   1.67529
 Alpha virt. eigenvalues --    1.68073   1.68171   1.68729   1.69294   1.69632
 Alpha virt. eigenvalues --    1.70932   1.71523   1.71581   1.73075   1.73313
 Alpha virt. eigenvalues --    1.73658   1.74920   1.75556   1.76770   1.77125
 Alpha virt. eigenvalues --    1.79455   1.80205   1.80290   1.81182   1.81330
 Alpha virt. eigenvalues --    1.82199   1.83852   1.84484   1.84673   1.85466
 Alpha virt. eigenvalues --    1.85643   1.86818   1.87106   1.87479   1.88183
 Alpha virt. eigenvalues --    1.88289   1.88957   1.90265   1.90829   1.91307
 Alpha virt. eigenvalues --    1.91346   1.91493   1.91674   1.92272   1.92457
 Alpha virt. eigenvalues --    1.92467   1.92655   1.93284   1.93324   1.93582
 Alpha virt. eigenvalues --    1.94353   1.94449   1.94680   1.95872   1.95892
 Alpha virt. eigenvalues --    1.96765   1.96884   1.97054   1.97275   1.97339
 Alpha virt. eigenvalues --    1.98645   1.98789   1.98844   1.99270   1.99440
 Alpha virt. eigenvalues --    1.99465   2.00246   2.00669   2.00726   2.01000
 Alpha virt. eigenvalues --    2.01030   2.01164   2.01556   2.01800   2.02782
 Alpha virt. eigenvalues --    2.02919   2.02989   2.03129   2.03487   2.03833
 Alpha virt. eigenvalues --    2.04051   2.04311   2.04621   2.05014   2.05307
 Alpha virt. eigenvalues --    2.05437   2.06199   2.07069   2.07805   2.08086
 Alpha virt. eigenvalues --    2.08948   2.09388   2.09699   2.10178   2.10410
 Alpha virt. eigenvalues --    2.11581   2.11771   2.12120   2.13227   2.13481
 Alpha virt. eigenvalues --    2.13688   2.14363   2.14455   2.15065   2.15517
 Alpha virt. eigenvalues --    2.16011   2.16154   2.16798   2.17357   2.19250
 Alpha virt. eigenvalues --    2.19299   2.20355   2.20658   2.22493   2.23036
 Alpha virt. eigenvalues --    2.23156   2.24319   2.24679   2.25019   2.25794
 Alpha virt. eigenvalues --    2.27193   2.27995   2.28448   2.28842   2.30252
 Alpha virt. eigenvalues --    2.31091   2.31369   2.31457   2.32591   2.32609
 Alpha virt. eigenvalues --    2.32813   2.32937   2.33135   2.33640   2.34074
 Alpha virt. eigenvalues --    2.34235   2.34846   2.35250   2.36070   2.36341
 Alpha virt. eigenvalues --    2.37044   2.37334   2.38600   2.38995   2.39637
 Alpha virt. eigenvalues --    2.39753   2.40206   2.41094   2.41362   2.41644
 Alpha virt. eigenvalues --    2.41943   2.42872   2.43229   2.43819   2.44082
 Alpha virt. eigenvalues --    2.45639   2.49275   2.49915   2.50511   2.51088
 Alpha virt. eigenvalues --    2.51104   2.51668   2.54042   2.54661   2.55666
 Alpha virt. eigenvalues --    2.56110   2.56606   2.57090   2.58383   2.58490
 Alpha virt. eigenvalues --    2.59150   2.59529   2.59777   2.60568   2.60741
 Alpha virt. eigenvalues --    2.61424   2.61773   2.62400   2.62525   2.64686
 Alpha virt. eigenvalues --    2.64718   2.65682   2.65895   2.66014   2.66524
 Alpha virt. eigenvalues --    2.66617   2.67720   2.68044   2.68570   2.68999
 Alpha virt. eigenvalues --    2.69636   2.70451   2.70797   2.71513   2.72363
 Alpha virt. eigenvalues --    2.73133   2.73402   2.73576   2.74407   2.74985
 Alpha virt. eigenvalues --    2.75721   2.76669   2.77195   2.77256   2.77507
 Alpha virt. eigenvalues --    2.78230   2.78512   2.79501   2.79521   2.79657
 Alpha virt. eigenvalues --    2.80350   2.81334   2.81587   2.82181   2.82495
 Alpha virt. eigenvalues --    2.83308   2.85473   2.85785   2.87596   2.87826
 Alpha virt. eigenvalues --    2.89086   2.89537   2.89881   2.90415   2.90594
 Alpha virt. eigenvalues --    2.92524   2.93639   2.94774   2.95837   2.98078
 Alpha virt. eigenvalues --    2.99316   3.00616   3.05272   3.05816   3.09804
 Alpha virt. eigenvalues --    3.10335   3.11473   3.12439   3.14358   3.14858
 Alpha virt. eigenvalues --    3.15023   3.15210   3.15672   3.15719   3.16180
 Alpha virt. eigenvalues --    3.16322   3.16697   3.17654   3.21100   3.21622
 Alpha virt. eigenvalues --    3.22028   3.23240   3.23361   3.23816   3.24194
 Alpha virt. eigenvalues --    3.24589   3.25449   3.28194   3.29332   3.30482
 Alpha virt. eigenvalues --    3.30484   3.31518   3.31909   3.33212   3.34389
 Alpha virt. eigenvalues --    3.34537   3.35921   3.37989   3.39078   3.39413
 Alpha virt. eigenvalues --    3.40236   3.41800   3.41861   3.42685   3.43561
 Alpha virt. eigenvalues --    3.43822   3.45768   3.46733   3.50776   3.52434
 Alpha virt. eigenvalues --    3.55702   3.55991   3.56306   3.57197   3.57548
 Alpha virt. eigenvalues --    3.60056   3.61006   3.64769   3.75200   3.94611
 Alpha virt. eigenvalues --    8.81219  11.26592  11.52633
          Condensed to atoms (all electrons):
 Mulliken charges:
               1
     1  Zn   0.760365
     2  O   -0.509386
     3  O   -0.470245
     4  O   -0.449478
     5  O   -0.502102
     6  C    0.417911
     7  C    0.468661
     8  Zn   0.485727
     9  O   -0.449060
    10  O   -0.521144
    11  O   -0.416138
    12  O   -0.468540
    13  C    0.424822
    14  C    0.424576
    15  H    0.057693
    16  H    0.064488
    17  H    0.065316
    18  H    0.068214
    19  C   -0.300345
    20  C    0.098544
    21  C   -0.568686
    22  C    0.061817
    23  C   -0.303648
    24  N    0.208418
    25  H    0.135103
    26  H    0.200223
    27  H    0.136498
    28  H    0.136411
    29  H    0.200414
    30  C   -0.319595
    31  C    0.135752
    32  C   -0.226584
    33  O   -0.305565
    34  C   -0.265579
    35  C    0.421093
    36  C   -0.373851
    37  O   -0.475377
    38  H    0.116952
    39  H    0.129372
    40  H    0.123729
    41  H    0.105391
    42  H    0.148322
    43  H    0.106902
    44  H    0.132161
    45  H    0.098004
    46  H    0.174777
    47  H    0.202990
    48  N   -0.711756
    49  C    0.078159
    50  C   -0.609568
    51  H    0.192191
    52  H    0.188884
    53  H    0.186898
    54  H    0.173329
    55  H    0.179834
    56  C    0.047521
    57  C   -0.559744
    58  H    0.194872
    59  H    0.192218
    60  H    0.195909
    61  H    0.177598
    62  H    0.174573
    63  C    0.119730
    64  C   -0.535313
    65  H    0.187704
    66  H    0.194637
    67  H    0.188901
    68  H    0.171418
    69  H    0.175681
    70  C    0.033288
    71  C   -0.542471
    72  H    0.186710
    73  H    0.183271
    74  H    0.190970
    75  H    0.176521
    76  H    0.168033
    77  Br  -0.385319
 Sum of Mulliken charges =   0.00000
 Mulliken charges with hydrogens summed into heavy atoms:
               1
     1  Zn   0.760365
     2  O   -0.509386
     3  O   -0.470245
     4  O   -0.449478
     5  O   -0.502102
     6  C    0.475604
     7  C    0.533149
     8  Zn   0.485727
     9  O   -0.449060
    10  O   -0.521144
    11  O   -0.416138
    12  O   -0.468540
    13  C    0.490138
    14  C    0.492790
    19  C   -0.100122
    20  C    0.235042
    21  C   -0.433583
    22  C    0.198227
    23  C   -0.103234
    24  N    0.208418
    30  C   -0.073272
    31  C    0.259481
    32  C    0.027129
    33  O   -0.305565
    34  C   -0.026516
    35  C    0.519096
    36  C    0.003916
    37  O   -0.475377
    48  N   -0.711756
    49  C    0.459234
    50  C   -0.069507
    56  C    0.434611
    57  C   -0.011665
    63  C    0.502072
    64  C    0.000688
    70  C    0.403270
    71  C   -0.006947
    77  Br  -0.385319
 Electronic spatial extent (au):  <R**2>=          92437.5133
 Charge=              0.0000 electrons
 Dipole moment (field-independent basis, Debye):
    X=             38.4437    Y=             45.6724    Z=            -54.3938  Tot=             80.7625
 Quadrupole moment (field-independent basis, Debye-Ang):
   XX=            195.0429   YY=             17.4751   ZZ=            143.5511
   XY=            351.1027   XZ=           -423.6649   YZ=           -328.8086
 Traceless Quadrupole moment (field-independent basis, Debye-Ang):
   XX=             76.3532   YY=           -101.2146   ZZ=             24.8614
   XY=            351.1027   XZ=           -423.6649   YZ=           -328.8086
 Octapole moment (field-independent basis, Debye-Ang**2):
  XXX=           3113.9377  YYY=           2169.3941  ZZZ=          -4146.0260  XYY=           2677.2521
  XXY=           3038.5570  XXZ=          -3732.4796  XZZ=           3906.1913  YZZ=           3356.3556
  YYZ=          -2832.4795  XYZ=          -3275.7703
 Hexadecapole moment (field-independent basis, Debye-Ang**3):
 XXXX=          -5024.9685 YYYY=          -7920.3081 ZZZZ=              1.5820 XXXY=          17277.9158
 XXXZ=         -21169.2653 YYYX=           6288.4456 YYYZ=          -8442.2978 ZZZX=         -20672.0465
 ZZZY=         -18672.1940 XXYY=          13612.5315 XXZZ=          22498.1667 YYZZ=          15338.8417
 XXYZ=         -26260.6306 YYXZ=         -19960.0156 ZZXY=          25813.5888
 N-N= 4.782081774043D+03 E-N=-2.031023706646D+04  KE= 4.551005255311D+03
  Exact polarizability:   0.000   0.000   0.000   0.000   0.000   0.000
 Approx polarizability: 620.724  25.546 489.623 -38.121  16.963 501.899

 This type of calculation cannot be archived.


 TIME IS IN FACT THE HERO OF THE PLOT. THE TIME
 WITH WHICH WE HAVE TO DEAL IS OF THE ORDER OF TWO
 BILLION YEARS...GIVEN SO MUCH TIME, THE "IMPOSSIBLE"
 BECOMES POSSIBLE, THE POSSIBLE PROBABLE, THE PROBABLE
 VIRTUALLY CERTAIN.  ONE HAS ONLY TO WAIT, TIME
 ITSELF PERFORMS THE MIRACLES.
 "ORIGIN OF LIFE" LECTURES, GEORGE WALD, 1954
 Job cpu time:      25 days 16 hours 57 minutes 25.3 seconds.
 Elapsed time:       0 days  9 hours 55 minutes 46.5 seconds.
 File lengths (MBytes):  RWF=   2718 Int=      0 D2E=      0 Chk=     63 Scr=      2
 Normal termination of Gaussian 16 at Thu Jun 15 01:16:51 2023.
