 Entering Gaussian System, Link 0=g16
 Input=2_IRC_test_opt_freq_TEA_relax_6_31Gdp.com
 Output=2_IRC_test_opt_freq_TEA_relax_6_31Gdp.log
 Initial command:
 /opt/ohpc/pub/apps/gaussian/avx2/g16/l1.exe "/scratch/g16-tmp/Gau-2056921.inp" -scrdir="/scratch/g16-tmp/"
 Entering Link 1 = /opt/ohpc/pub/apps/gaussian/avx2/g16/l1.exe PID=   2056922.
  
 Copyright (c) 1988-2017, Gaussian, Inc.  All Rights Reserved.
  
 This is part of the Gaussian(R) 16 program.  It is based on
 the Gaussian(R) 09 system (copyright 2009, Gaussian, Inc.),
 the Gaussian(R) 03 system (copyright 2003, Gaussian, Inc.),
 the Gaussian(R) 98 system (copyright 1998, Gaussian, Inc.),
 the Gaussian(R) 94 system (copyright 1995, Gaussian, Inc.),
 the Gaussian 92(TM) system (copyright 1992, Gaussian, Inc.),
 the Gaussian 90(TM) system (copyright 1990, Gaussian, Inc.),
 the Gaussian 88(TM) system (copyright 1988, Gaussian, Inc.),
 the Gaussian 86(TM) system (copyright 1986, Carnegie Mellon
 University), and the Gaussian 82(TM) system (copyright 1983,
 Carnegie Mellon University). Gaussian is a federally registered
 trademark of Gaussian, Inc.
  
 This software contains proprietary and confidential information,
 including trade secrets, belonging to Gaussian, Inc.
  
 This software is provided under written license and may be
 used, copied, transmitted, or stored only in accord with that
 written license.
  
 The following legend is applicable only to US Government
 contracts under FAR:
  
                    RESTRICTED RIGHTS LEGEND
  
 Use, reproduction and disclosure by the US Government is
 subject to restrictions as set forth in subparagraphs (a)
 and (c) of the Commercial Computer Software - Restricted
 Rights clause in FAR 52.227-19.
  
 Gaussian, Inc.
 340 Quinnipiac St., Bldg. 40, Wallingford CT 06492
  
  
 ---------------------------------------------------------------
 Warning -- This program may not be used in any manner that
 competes with the business of Gaussian, Inc. or will provide
 assistance to any competitor of Gaussian, Inc.  The licensee
 of this program is prohibited from giving any competitor of
 Gaussian, Inc. access to this program.  By using this program,
 the user acknowledges that Gaussian, Inc. is engaged in the
 business of creating and licensing software in the field of
 computational chemistry and represents and warrants to the
 licensee that it is not a competitor of Gaussian, Inc. and that
 it will not use this program in any manner prohibited above.
 ---------------------------------------------------------------
  

 Cite this work as:
 Gaussian 16, Revision B.01,
 M. J. Frisch, G. W. Trucks, H. B. Schlegel, G. E. Scuseria, 
 M. A. Robb, J. R. Cheeseman, G. Scalmani, V. Barone, 
 G. A. Petersson, H. Nakatsuji, X. Li, M. Caricato, A. V. Marenich, 
 J. Bloino, B. G. Janesko, R. Gomperts, B. Mennucci, H. P. Hratchian, 
 J. V. Ortiz, A. F. Izmaylov, J. L. Sonnenberg, D. Williams-Young, 
 F. Ding, F. Lipparini, F. Egidi, J. Goings, B. Peng, A. Petrone, 
 T. Henderson, D. Ranasinghe, V. G. Zakrzewski, J. Gao, N. Rega, 
 G. Zheng, W. Liang, M. Hada, M. Ehara, K. Toyota, R. Fukuda, 
 J. Hasegawa, M. Ishida, T. Nakajima, Y. Honda, O. Kitao, H. Nakai, 
 T. Vreven, K. Throssell, J. A. Montgomery, Jr., J. E. Peralta, 
 F. Ogliaro, M. J. Bearpark, J. J. Heyd, E. N. Brothers, K. N. Kudin, 
 V. N. Staroverov, T. A. Keith, R. Kobayashi, J. Normand, 
 K. Raghavachari, A. P. Rendell, J. C. Burant, S. S. Iyengar, 
 J. Tomasi, M. Cossi, J. M. Millam, M. Klene, C. Adamo, R. Cammi, 
 J. W. Ochterski, R. L. Martin, K. Morokuma, O. Farkas, 
 J. B. Foresman, and D. J. Fox, Gaussian, Inc., Wallingford CT, 2016.
 
 ******************************************
 Gaussian 16:  ES64L-G16RevB.01 20-Dec-2017
                17-Oct-2023 
 ******************************************
 %nprocshared=64
 Will use up to   64 processors via shared memory.
 %mem=64GB
 %chk=2_IRC_test_opt_freq_TEA_relax_6_31Gdp.chk
 ----------------------------------------------------------------------
 # opt=(calcall,tight,cartesian) freq b3lyp/gen nosymm scf=(qc,maxcycle
 =1024) pseudo=read
 ----------------------------------------------------------------------
 1/7=10,10=4,18=10,26=3,38=1/1,3;
 2/12=2,15=1,17=6,18=5,29=2,40=1/2;
 3/5=7,11=2,16=1,17=8,25=1,30=1,71=2,74=-5,140=1/1,2,3;
 4//1;
 5/5=2,7=1024,8=3,38=5/8;
 8/6=4,10=90,11=11/1;
 11/6=1,8=1,9=11,15=111,16=1,31=1/1,2,10;
 10/6=1,31=1/2;
 6/7=2,8=2,9=2,10=2,18=1,28=1/1;
 7/7=1,10=1,25=1,30=1/1,2,3,16;
 1/7=10,10=4,18=10,26=3/3(3);
 2/15=1,29=1/2;
 7/7=1,8=1,9=1,25=1,30=1,44=-1/16;
 99/12=1/99;
 2/15=1,29=1/2;
 3/5=7,6=1,11=2,16=1,17=8,25=1,30=1,71=2,74=-5,82=7,140=1/1,2,3;
 4/5=5,16=3,69=1/1;
 5/5=2,7=1024,8=3,38=5/8;
 8/6=4,10=90,11=11/1;
 11/6=1,8=1,9=11,15=111,16=1,31=1/1,2,10;
 10/6=1,31=1/2;
 7/7=1,10=1,25=1,30=1/1,2,3,16;
 1/7=10,10=4,18=10,26=3/3(-8);
 2/15=1,29=1/2;
 6/7=2,8=2,9=2,10=2,18=1,19=2,28=1/1;
 7/7=1,8=1,9=1,25=1,30=1,44=-1/16;
 99/12=1/99;
 -------------------------------------
 2_IRC_test_opt_freq_TEA_relax_6_31Gdp
 -------------------------------------
 Symbolic Z-matrix:
 Charge =  0 Multiplicity = 1
 Zn                   0    -3.23425  -0.11908   0.39813 
 O                    0    -1.73581  -1.26927  -0.4387 
 O                    0     0.1743    0.20523  -0.04054 
 O                    -1   -2.51114  -0.61174   2.28235 
 O                    -1   -0.94854   1.03119   2.47412 
 C                    -1   -1.64266   0.08152   2.91182 
 Zn                   0    -0.75969   1.92582   0.48814 
 O                    -1   -2.20254   3.23497   1.10178 
 O                    -1   -3.91151   1.74383   1.28054 
 O                    -1   -1.6594    2.0022   -1.49235 
 O                    -1   -3.56147   0.75963  -1.44286 
 C                    -1   -3.38394   2.88544   1.40068 
 C                    -1   -2.72122   1.54216  -1.98798 
 H                    -1   -1.48254  -0.20952   3.9715 
 H                    -1   -4.03268   3.68106   1.81952 
 H                    -1   -2.95889   1.85473  -3.02447 
 C                    -1    2.00561   2.8746    0.01332 
 C                    -1    3.11923   3.72002   0.02708 
 C                    -1    2.97712   5.0147    0.54159 
 C                    -1    1.72503   5.42167   1.02032 
 C                    -1    0.65942   4.51778   0.97175 
 N                    -1    0.80282   3.26991   0.48037 
 H                    -1    3.82739   5.69615   0.56843 
 H                    -1    2.04428   1.85442  -0.36892 
 H                    -1    4.07294   3.36339  -0.35777 
 H                    -1    1.57044   6.41982   1.42633 
 H                    -1   -0.33886   4.77233   1.32469 
 C                    -1   -5.29666  -1.95858   1.57791 
 C                    -1   -6.45209  -2.74215   1.64798 
 C                    -1   -7.31005  -2.77983   0.54147 
 C                    -1   -6.98299  -2.03155  -0.59627 
 C                    -1   -5.81001  -1.2709   -0.5891 
 N                    -1   -4.98459  -1.24001   0.47873 
 H                    -1   -8.21826  -3.38176   0.56577 
 H                    -1   -4.58962  -1.88668   2.40349 
 H                    -1   -6.66846  -3.30713   2.55285 
 H                    -1   -7.62183  -2.03095  -1.47754 
 H                    -1   -5.50149  -0.66488  -1.44003 
 H                    0    -0.60999  -0.54444  -0.25115 
 H                    0     0.89987  -0.11394   0.54878 
 H                    0    -1.65556  -2.12351   0.02921 
 C                    0     6.16467  -5.48642   5.12995 
 C                    0     6.02749  -4.23683   4.67506 
 C                    0     4.73645  -3.47674   4.66922 
 O                    0     4.55156  -2.91737   3.33416 
 C                    0     3.36031  -2.09929   3.20599 
 C                    0     3.32998  -1.59727   1.78852 
 C                    0     3.7835   -0.23903   1.42882 
 O                    0     2.30237  -0.54034   1.55198 
 H                    0     7.12667  -5.989     5.14145 
 H                    0     5.31947  -6.05547   5.51034 
 H                    0     6.88368  -3.68892   4.28649 
 H                    0     4.76537  -2.65058   5.40072 
 H                    0     3.88924  -4.12837   4.93323 
 H                    0     3.38035  -1.25323   3.90889 
 H                    0     2.45914  -2.69568   3.41906 
 H                    0     3.36217  -2.36956   1.02545 
 H                    0     4.10818  -0.01436   0.4133 
 H                    0     4.14548   0.41556   2.21624 
 N                    0     1.08407  -0.91407  -3.89833 
 C                    0    -0.26712  -1.65137  -3.79212 
 C                    0    -1.4172   -1.1127   -4.64104 
 H                    0    -0.55785  -1.62217  -2.73848 
 H                    0    -0.04987  -2.68876  -4.07044 
 H                    0    -2.27467  -1.77579  -4.48158 
 H                    0    -1.72791  -0.11448  -4.32995 
 H                    0    -1.2021   -1.10554  -5.71353 
 C                    0     1.49756  -0.77754  -5.36958 
 C                    0     2.94004  -0.30864  -5.58326 
 H                    0     0.79372  -0.08152  -5.82352 
 H                    0     1.33514  -1.76313  -5.81946 
 H                    0     3.03735   0.05703  -6.61136 
 H                    0     3.23573   0.4946   -4.90069 
 H                    0     3.66033  -1.11928  -5.44923 
 C                    0     2.1603   -1.78882  -3.19867 
 C                    0     1.83126  -2.221    -1.77575 
 H                    0     3.07272  -1.18486  -3.17412 
 H                    0     2.29692  -2.65574  -3.85463 
 H                    0     2.70694  -2.76251  -1.4004 
 H                    0     1.67181  -1.36151  -1.12391 
 H                    0     0.9689   -2.89006  -1.70683 
 C                    0     1.02982   0.47486  -3.18586 
 C                    0     0.54547   1.65269  -4.02839 
 H                    0     2.05188   0.66998  -2.84003 
 H                    0     0.40326   0.33657  -2.30467 
 H                    0     0.43889   2.49707  -3.34065 
 H                    0     1.26446   1.9414   -4.80106 
 H                    0    -0.43333   1.50403  -4.4909 
 Br                   0     4.46675   0.84548  -2.07626 
 

 GradGradGradGradGradGradGradGradGradGradGradGradGradGradGradGradGradGrad
 Berny optimization.
 Initialization pass.
 No Z-matrix variables, so optimization will use Cartesian coordinates.
 Trust Radius=3.00D-01 FncErr=1.00D-07 GrdErr=1.00D-06 EigMax=2.50D+02 EigMin=1.00D-04
 Number of steps in this run=    277 maximum allowed number of steps=    534.
 GradGradGradGradGradGradGradGradGradGradGradGradGradGradGradGradGradGrad

 Symmetry turned off by external request.
 Stoichiometry    C27H46BrN3O10Zn2
 Framework group  C1[X(C27H46BrN3O10Zn2)]
 Deg. of freedom   261
 Full point group                 C1      NOp   1
                          Input orientation:                          
 ---------------------------------------------------------------------
 Center     Atomic      Atomic             Coordinates (Angstroms)
 Number     Number       Type             X           Y           Z
 ---------------------------------------------------------------------
      1         30           0       -3.234246   -0.119083    0.398132
      2          8           0       -1.735810   -1.269273   -0.438696
      3          8           0        0.174298    0.205226   -0.040544
      4          8           0       -2.511139   -0.611741    2.282354
      5          8           0       -0.948540    1.031194    2.474118
      6          6           0       -1.642662    0.081515    2.911819
      7         30           0       -0.759686    1.925819    0.488139
      8          8           0       -2.202543    3.234967    1.101778
      9          8           0       -3.911505    1.743830    1.280540
     10          8           0       -1.659401    2.002204   -1.492346
     11          8           0       -3.561472    0.759630   -1.442861
     12          6           0       -3.383942    2.885437    1.400684
     13          6           0       -2.721219    1.542156   -1.987984
     14          1           0       -1.482544   -0.209516    3.971499
     15          1           0       -4.032682    3.681055    1.819515
     16          1           0       -2.958887    1.854725   -3.024466
     17          6           0        2.005607    2.874599    0.013320
     18          6           0        3.119225    3.720015    0.027075
     19          6           0        2.977120    5.014700    0.541593
     20          6           0        1.725028    5.421671    1.020317
     21          6           0        0.659416    4.517778    0.971746
     22          7           0        0.802816    3.269912    0.480367
     23          1           0        3.827391    5.696152    0.568429
     24          1           0        2.044279    1.854420   -0.368917
     25          1           0        4.072935    3.363391   -0.357766
     26          1           0        1.570442    6.419819    1.426332
     27          1           0       -0.338864    4.772332    1.324688
     28          6           0       -5.296664   -1.958575    1.577914
     29          6           0       -6.452089   -2.742154    1.647984
     30          6           0       -7.310054   -2.779833    0.541467
     31          6           0       -6.982990   -2.031555   -0.596267
     32          6           0       -5.810009   -1.270897   -0.589103
     33          7           0       -4.984590   -1.240005    0.478729
     34          1           0       -8.218260   -3.381757    0.565768
     35          1           0       -4.589624   -1.886676    2.403491
     36          1           0       -6.668464   -3.307130    2.552852
     37          1           0       -7.621829   -2.030945   -1.477539
     38          1           0       -5.501486   -0.664882   -1.440030
     39          1           0       -0.609991   -0.544437   -0.251148
     40          1           0        0.899866   -0.113938    0.548778
     41          1           0       -1.655557   -2.123506    0.029206
     42          6           0        6.164668   -5.486416    5.129946
     43          6           0        6.027486   -4.236830    4.675060
     44          6           0        4.736454   -3.476742    4.669224
     45          8           0        4.551559   -2.917372    3.334158
     46          6           0        3.360313   -2.099292    3.205985
     47          6           0        3.329979   -1.597265    1.788523
     48          6           0        3.783504   -0.239033    1.428819
     49          8           0        2.302368   -0.540336    1.551976
     50          1           0        7.126673   -5.988996    5.141453
     51          1           0        5.319469   -6.055474    5.510344
     52          1           0        6.883684   -3.688917    4.286487
     53          1           0        4.765374   -2.650584    5.400719
     54          1           0        3.889243   -4.128373    4.933225
     55          1           0        3.380347   -1.253225    3.908894
     56          1           0        2.459135   -2.695675    3.419058
     57          1           0        3.362165   -2.369556    1.025448
     58          1           0        4.108175   -0.014358    0.413302
     59          1           0        4.145485    0.415559    2.216235
     60          7           0        1.084070   -0.914070   -3.898332
     61          6           0       -0.267123   -1.651374   -3.792117
     62          6           0       -1.417200   -1.112697   -4.641037
     63          1           0       -0.557847   -1.622166   -2.738483
     64          1           0       -0.049867   -2.688759   -4.070442
     65          1           0       -2.274665   -1.775785   -4.481584
     66          1           0       -1.727914   -0.114478   -4.329950
     67          1           0       -1.202097   -1.105539   -5.713526
     68          6           0        1.497555   -0.777543   -5.369579
     69          6           0        2.940043   -0.308640   -5.583256
     70          1           0        0.793721   -0.081521   -5.823518
     71          1           0        1.335142   -1.763130   -5.819456
     72          1           0        3.037352    0.057033   -6.611362
     73          1           0        3.235730    0.494595   -4.900685
     74          1           0        3.660331   -1.119279   -5.449229
     75          6           0        2.160303   -1.788824   -3.198666
     76          6           0        1.831258   -2.221004   -1.775747
     77          1           0        3.072719   -1.184855   -3.174122
     78          1           0        2.296918   -2.655743   -3.854627
     79          1           0        2.706940   -2.762511   -1.400400
     80          1           0        1.671805   -1.361512   -1.123914
     81          1           0        0.968903   -2.890061   -1.706830
     82          6           0        1.029819    0.474858   -3.185855
     83          6           0        0.545466    1.652685   -4.028393
     84          1           0        2.051877    0.669978   -2.840034
     85          1           0        0.403262    0.336568   -2.304670
     86          1           0        0.438890    2.497073   -3.340655
     87          1           0        1.264456    1.941400   -4.801055
     88          1           0       -0.433327    1.504031   -4.490901
     89         35           0        4.466746    0.845481   -2.076257
 ---------------------------------------------------------------------
 Rotational constants (GHZ):           0.0597505           0.0398486           0.0350754
 General basis read from cards:  (5D, 7F)
 ======================================================================================================
                                       Pseudopotential Parameters
 ======================================================================================================
  Center     Atomic      Valence      Angular      Power
  Number     Number     Electrons     Momentum     of R      Exponent        Coefficient   SO-Coeffient
 ======================================================================================================
    1         30           12
                                      F and up 
                                                     1      386.7379660      -18.00000000    0.00000000
                                                     2       72.8587359     -124.35274030    0.00000000
                                                     2       15.9066170      -30.66018220    0.00000000
                                                     2        4.3502340      -10.63589890    0.00000000
                                                     2        1.2842199       -0.76836230    0.00000000
                                      S - F
                                                     0       19.0867858        3.00000000    0.00000000
                                                     1        5.0231080       22.52342250    0.00000000
                                                     2        1.2701744       48.44659420    0.00000000
                                                     2        1.0671287      -44.55601190    0.00000000
                                                     2        0.9264190       12.99839580    0.00000000
                                      P - F
                                                     0       43.4927750        5.00000000    0.00000000
                                                     1       20.8692669       20.74355890    0.00000000
                                                     2       21.7118378       90.30271580    0.00000000
                                                     2        6.3616915       74.66103160    0.00000000
                                                     2        1.2291195        9.88944240    0.00000000
                                      D - F
                                                     2       13.5851800       -4.84903590    0.00000000
                                                     2        9.8373050        3.69133790    0.00000000
                                                     2        0.8373113       -0.50373190    0.00000000
    2          8
                                   No pseudopotential on this center.
    3          8
                                   No pseudopotential on this center.
    4          8
                                   No pseudopotential on this center.
    5          8
                                   No pseudopotential on this center.
    6          6
                                   No pseudopotential on this center.
    7         30           12
                                      F and up 
                                                     1      386.7379660      -18.00000000    0.00000000
                                                     2       72.8587359     -124.35274030    0.00000000
                                                     2       15.9066170      -30.66018220    0.00000000
                                                     2        4.3502340      -10.63589890    0.00000000
                                                     2        1.2842199       -0.76836230    0.00000000
                                      S - F
                                                     0       19.0867858        3.00000000    0.00000000
                                                     1        5.0231080       22.52342250    0.00000000
                                                     2        1.2701744       48.44659420    0.00000000
                                                     2        1.0671287      -44.55601190    0.00000000
                                                     2        0.9264190       12.99839580    0.00000000
                                      P - F
                                                     0       43.4927750        5.00000000    0.00000000
                                                     1       20.8692669       20.74355890    0.00000000
                                                     2       21.7118378       90.30271580    0.00000000
                                                     2        6.3616915       74.66103160    0.00000000
                                                     2        1.2291195        9.88944240    0.00000000
                                      D - F
                                                     2       13.5851800       -4.84903590    0.00000000
                                                     2        9.8373050        3.69133790    0.00000000
                                                     2        0.8373113       -0.50373190    0.00000000
    8          8
                                   No pseudopotential on this center.
    9          8
                                   No pseudopotential on this center.
   10          8
                                   No pseudopotential on this center.
   11          8
                                   No pseudopotential on this center.
   12          6
                                   No pseudopotential on this center.
   13          6
                                   No pseudopotential on this center.
   14          1
                                   No pseudopotential on this center.
   15          1
                                   No pseudopotential on this center.
   16          1
                                   No pseudopotential on this center.
   17          6
                                   No pseudopotential on this center.
   18          6
                                   No pseudopotential on this center.
   19          6
                                   No pseudopotential on this center.
   20          6
                                   No pseudopotential on this center.
   21          6
                                   No pseudopotential on this center.
   22          7
                                   No pseudopotential on this center.
   23          1
                                   No pseudopotential on this center.
   24          1
                                   No pseudopotential on this center.
   25          1
                                   No pseudopotential on this center.
   26          1
                                   No pseudopotential on this center.
   27          1
                                   No pseudopotential on this center.
   28          6
                                   No pseudopotential on this center.
   29          6
                                   No pseudopotential on this center.
   30          6
                                   No pseudopotential on this center.
   31          6
                                   No pseudopotential on this center.
   32          6
                                   No pseudopotential on this center.
   33          7
                                   No pseudopotential on this center.
   34          1
                                   No pseudopotential on this center.
   35          1
                                   No pseudopotential on this center.
   36          1
                                   No pseudopotential on this center.
   37          1
                                   No pseudopotential on this center.
   38          1
                                   No pseudopotential on this center.
   39          1
                                   No pseudopotential on this center.
   40          1
                                   No pseudopotential on this center.
   41          1
                                   No pseudopotential on this center.
   42          6
                                   No pseudopotential on this center.
   43          6
                                   No pseudopotential on this center.
   44          6
                                   No pseudopotential on this center.
   45          8
                                   No pseudopotential on this center.
   46          6
                                   No pseudopotential on this center.
   47          6
                                   No pseudopotential on this center.
   48          6
                                   No pseudopotential on this center.
   49          8
                                   No pseudopotential on this center.
   50          1
                                   No pseudopotential on this center.
   51          1
                                   No pseudopotential on this center.
   52          1
                                   No pseudopotential on this center.
   53          1
                                   No pseudopotential on this center.
   54          1
                                   No pseudopotential on this center.
   55          1
                                   No pseudopotential on this center.
   56          1
                                   No pseudopotential on this center.
   57          1
                                   No pseudopotential on this center.
   58          1
                                   No pseudopotential on this center.
   59          1
                                   No pseudopotential on this center.
   60          7
                                   No pseudopotential on this center.
   61          6
                                   No pseudopotential on this center.
   62          6
                                   No pseudopotential on this center.
   63          1
                                   No pseudopotential on this center.
   64          1
                                   No pseudopotential on this center.
   65          1
                                   No pseudopotential on this center.
   66          1
                                   No pseudopotential on this center.
   67          1
                                   No pseudopotential on this center.
   68          6
                                   No pseudopotential on this center.
   69          6
                                   No pseudopotential on this center.
   70          1
                                   No pseudopotential on this center.
   71          1
                                   No pseudopotential on this center.
   72          1
                                   No pseudopotential on this center.
   73          1
                                   No pseudopotential on this center.
   74          1
                                   No pseudopotential on this center.
   75          6
                                   No pseudopotential on this center.
   76          6
                                   No pseudopotential on this center.
   77          1
                                   No pseudopotential on this center.
   78          1
                                   No pseudopotential on this center.
   79          1
                                   No pseudopotential on this center.
   80          1
                                   No pseudopotential on this center.
   81          1
                                   No pseudopotential on this center.
   82          6
                                   No pseudopotential on this center.
   83          6
                                   No pseudopotential on this center.
   84          1
                                   No pseudopotential on this center.
   85          1
                                   No pseudopotential on this center.
   86          1
                                   No pseudopotential on this center.
   87          1
                                   No pseudopotential on this center.
   88          1
                                   No pseudopotential on this center.
   89         35
                                   No pseudopotential on this center.
 ======================================================================================================
  1018 basis functions,  1767 primitive gaussians,  1064 cartesian basis functions
   184 alpha electrons      184 beta electrons
       nuclear repulsion energy      6811.5828370410 Hartrees.
 NAtoms=   89 NActive=   89 NUniq=   89 SFac= 1.00D+00 NAtFMM=   60 NAOKFM=T Big=T
 Integral buffers will be    131072 words long.
 Raffenetti 2 integral format.
 Two-electron integral symmetry is turned off.
 One-electron integrals computed using PRISM.
   1 Symmetry operations used in ECPInt.
 ECPInt:  NShTT=   66066 NPrTT=  291632 LenC2=   48791 LenP2D=  124358.
 LDataN:  DoStor=T MaxTD1= 5 Len=  102
 NBasis=  1018 RedAO= T EigKep=  3.10D-06  NBF=  1018
 NBsUse=  1018 1.00D-06 EigRej= -1.00D+00 NBFU=  1018
 ExpMin= 3.50D-02 ExpMax= 5.74D+05 ExpMxC= 5.74D+03 IAcc=3 IRadAn=         5 AccDes= 0.00D+00
 Harris functional with IExCor=  402 and IRadAn=       5 diagonalized for initial guess.
 HarFok:  IExCor=  402 AccDes= 0.00D+00 IRadAn=         5 IDoV= 1 UseB2=F ITyADJ=14
 ICtDFT=  3500011 ScaDFX=  1.000000  1.000000  1.000000  1.000000
 FoFCou: FMM=F IPFlag=           0 FMFlag=      100000 FMFlg1=        2001
         NFxFlg=           0 DoJE=T BraDBF=F KetDBF=T FulRan=T
         wScrn=  0.000000 ICntrl=       500 IOpCl=  0 I1Cent=   200000004 NGrid=           0
         NMat0=    1 NMatS0=      1 NMatT0=    0 NMatD0=    1 NMtDS0=    0 NMtDT0=    0
 Symmetry not used in FoFCou.
 Gradient too large for Newton-Raphson -- use scaled steepest descent instead.
     Accept linear search using points  2 and  3.
 Gradient too large for Newton-Raphson -- use scaled steepest descent instead.
     Accept linear search using points  2 and  3.
 Gradient too large for Newton-Raphson -- use scaled steepest descent instead.
     Accept linear search using points  2 and  3.
 Gradient too large for Newton-Raphson -- use scaled steepest descent instead.
     Accept linear search using points  1 and  2.
 Gradient too large for Newton-Raphson -- use scaled steepest descent instead.
     Minimum is close to point  3 DX=  2.34D-02 DF= -4.60D-07 DXR=  2.53D-02 DFR=  6.41D-04 which will be used.
 LinEq1:  Iter=  0 NonCon=     1 RMS=1.96D-05 Max=1.11D-03 NDo=     1
 AX will form     1 AO Fock derivatives at one time.
 LinEq1:  Iter=  1 NonCon=     1 RMS=1.84D-05 Max=1.65D-03 NDo=     1
 LinEq1:  Iter=  2 NonCon=     1 RMS=1.33D-05 Max=8.51D-04 NDo=     1
 LinEq1:  Iter=  3 NonCon=     1 RMS=4.89D-06 Max=3.14D-04 NDo=     1
 LinEq1:  Iter=  4 NonCon=     1 RMS=4.20D-06 Max=3.21D-04 NDo=     1
 LinEq1:  Iter=  5 NonCon=     1 RMS=3.03D-06 Max=2.56D-04 NDo=     1
 LinEq1:  Iter=  6 NonCon=     1 RMS=1.93D-06 Max=1.35D-04 NDo=     1
 LinEq1:  Iter=  7 NonCon=     1 RMS=1.43D-06 Max=1.43D-04 NDo=     1
 LinEq1:  Iter=  8 NonCon=     1 RMS=7.73D-07 Max=1.08D-04 NDo=     1
 LinEq1:  Iter=  9 NonCon=     1 RMS=5.60D-07 Max=6.20D-05 NDo=     1
 LinEq1:  Iter= 10 NonCon=     1 RMS=3.53D-07 Max=4.55D-05 NDo=     1
 LinEq1:  Iter= 11 NonCon=     1 RMS=1.91D-07 Max=1.90D-05 NDo=     1
 LinEq1:  Iter= 12 NonCon=     1 RMS=1.29D-07 Max=1.54D-05 NDo=     1
 LinEq1:  Iter= 13 NonCon=     1 RMS=6.68D-08 Max=7.08D-06 NDo=     1
 LinEq1:  Iter= 14 NonCon=     1 RMS=5.61D-08 Max=4.24D-06 NDo=     1
 LinEq1:  Iter= 15 NonCon=     1 RMS=3.93D-08 Max=2.48D-06 NDo=     1
 LinEq1:  Iter= 16 NonCon=     1 RMS=2.28D-08 Max=3.05D-06 NDo=     1
 LinEq1:  Iter= 17 NonCon=     1 RMS=1.71D-08 Max=1.77D-06 NDo=     1
 LinEq1:  Iter= 18 NonCon=     1 RMS=9.39D-09 Max=8.84D-07 NDo=     1
 LinEq1:  Iter= 19 NonCon=     1 RMS=5.86D-09 Max=5.72D-07 NDo=     1
 LinEq1:  Iter= 20 NonCon=     0 RMS=3.00D-09 Max=3.05D-07 NDo=     1
 Linear equations converged to 5.540D-08 5.540D-07 after    20 iterations.
     Accept linear search using points  1 and  2.
     Minimum is close to point  2 DX= -3.52D-04 DF= -4.55D-12 DXR=  3.52D-04 DFR=  1.28D-07 which will be used.
 SCF Done:  E(RB3LYP) =  -4675.96933323     a.u. after    7 cycles
            Convg  =    0.5432D-05                    36 Fock formations.
              S**2 =  0.0000                  -V/T =  1.9823
 DoSCS=F DFT=T ScalE2(SS,OS)=  1.000000  1.000000
 Range of M.O.s used for correlation:     1  1018
 NBasis=  1018 NAE=   184 NBE=   184 NFC=     0 NFV=     0
 NROrb=   1018 NOA=   184 NOB=   184 NVA=   834 NVB=   834

 **** Warning!!: The largest alpha MO coefficient is  0.72433111D+02

 PrsmSu:  requested number of processors reduced to:  54 ShMem   1 Linda.
   1 Symmetry operations used in ECPInt.
 ECPInt:  NShTT=   66066 NPrTT=  291632 LenC2=   48791 LenP2D=  124358.
 LDataN:  DoStor=T MaxTD1= 6 Len=  172
 Number of processors reduced to   7 by ecpmxn.
 Symmetrizing basis deriv contribution to polar:
 IMax=3 JMax=2 DiffMx= 0.00D+00
 G2DrvN: will do    45 centers at a time, making    2 passes.
 Calling FoFCou, ICntrl=  3107 FMM=T I1Cent=   0 AccDes= 0.00D+00.
 Calling FoFCou, ICntrl=  3107 FMM=T I1Cent=   0 AccDes= 0.00D+00.
 End of G2Drv F.D. properties file   721 does not exist.
 End of G2Drv F.D. properties file   722 does not exist.
 End of G2Drv F.D. properties file   788 does not exist.
          IDoAtm=11100010000000000000000000000000000000111111111111
          IDoAtm=111111111111111111111111111111111111111
          Differentiating once with respect to electric field.
                with respect to dipole field.
          Differentiating once with respect to nuclear coordinates.
 CalDSu exits because no D1Ps are significant.
          There are   168 degrees of freedom in the 1st order CPHF.  IDoFFX=6 NUNeed=     3.
    168 vectors produced by pass  0 Test12= 1.53D-13 1.00D-09 XBig12= 3.96D+02 5.53D+00.
 AX will form    96 AO Fock derivatives at one time.
    168 vectors produced by pass  1 Test12= 1.53D-13 1.00D-09 XBig12= 1.52D+02 4.24D+00.
    168 vectors produced by pass  2 Test12= 1.53D-13 1.00D-09 XBig12= 1.48D+01 3.97D-01.
    168 vectors produced by pass  3 Test12= 1.53D-13 1.00D-09 XBig12= 2.87D-01 4.99D-02.
    168 vectors produced by pass  4 Test12= 1.53D-13 1.00D-09 XBig12= 3.08D-03 7.44D-03.
    165 vectors produced by pass  5 Test12= 1.53D-13 1.00D-09 XBig12= 2.88D-05 1.44D-03.
     47 vectors produced by pass  6 Test12= 1.53D-13 1.00D-09 XBig12= 1.48D-07 8.04D-05.
     14 vectors produced by pass  7 Test12= 1.53D-13 1.00D-09 XBig12= 3.94D-10 1.42D-06.
      6 vectors produced by pass  8 Test12= 1.53D-13 1.00D-09 XBig12= 1.23D-12 1.27D-07.
      3 vectors produced by pass  9 Test12= 1.53D-13 1.00D-09 XBig12= 4.09D-15 8.60D-09.
 InvSVY:  IOpt=1 It=  1 EMax= 1.78D-14
 Solved reduced A of dimension  1075 with   168 vectors.
 Isotropic polarizability for W=    0.000000      453.70 Bohr**3.
 End of Minotr F.D. properties file   721 does not exist.
 End of Minotr F.D. properties file   722 does not exist.
 End of Minotr F.D. properties file   788 does not exist.

 **********************************************************************

            Population analysis using the SCF Density.

 **********************************************************************

 Alpha  occ. eigenvalues -- -482.54170 -61.62517 -56.19286 -56.19273 -56.19262
 Alpha  occ. eigenvalues --  -19.16620 -19.15816 -19.12933 -19.12862 -19.12177
 Alpha  occ. eigenvalues --  -19.11849 -19.11779 -19.11690 -19.11497 -19.09230
 Alpha  occ. eigenvalues --  -14.45873 -14.38417 -14.36976 -10.29584 -10.28605
 Alpha  occ. eigenvalues --  -10.28395 -10.25629 -10.25481 -10.25453 -10.25170
 Alpha  occ. eigenvalues --  -10.24501 -10.24195 -10.24028 -10.23955 -10.23865
 Alpha  occ. eigenvalues --  -10.23758 -10.23293 -10.22859 -10.22838 -10.22731
 Alpha  occ. eigenvalues --  -10.21977 -10.21891 -10.21038 -10.20706 -10.20090
 Alpha  occ. eigenvalues --  -10.19726 -10.19340 -10.18948 -10.18557 -10.18500
 Alpha  occ. eigenvalues --   -8.39401  -6.40213  -6.40187  -6.40175  -2.52316
 Alpha  occ. eigenvalues --   -2.52312  -2.52302  -2.52280  -2.52279  -1.05405
 Alpha  occ. eigenvalues --   -1.04521  -1.04187  -1.03985  -1.02364  -1.00023
 Alpha  occ. eigenvalues --   -0.98030  -0.97104  -0.96753  -0.96397  -0.96157
 Alpha  occ. eigenvalues --   -0.95763  -0.91354  -0.83551  -0.81523  -0.80134
 Alpha  occ. eigenvalues --   -0.79725  -0.79393  -0.79238  -0.78083  -0.77354
 Alpha  occ. eigenvalues --   -0.74348  -0.74192  -0.67689  -0.66791  -0.66453
 Alpha  occ. eigenvalues --   -0.66359  -0.65925  -0.65720  -0.64876  -0.64565
 Alpha  occ. eigenvalues --   -0.63897  -0.61146  -0.60787  -0.60027  -0.59409
 Alpha  occ. eigenvalues --   -0.58912  -0.58832  -0.58652  -0.58361  -0.58213
 Alpha  occ. eigenvalues --   -0.57876  -0.57758  -0.57573  -0.57416  -0.57195
 Alpha  occ. eigenvalues --   -0.56719  -0.56560  -0.55475  -0.54214  -0.53803
 Alpha  occ. eigenvalues --   -0.52502  -0.52055  -0.51845  -0.51174  -0.50793
 Alpha  occ. eigenvalues --   -0.50029  -0.49782  -0.49182  -0.48936  -0.48510
 Alpha  occ. eigenvalues --   -0.48466  -0.47496  -0.47439  -0.47214  -0.47030
 Alpha  occ. eigenvalues --   -0.46908  -0.46495  -0.45873  -0.45448  -0.44905
 Alpha  occ. eigenvalues --   -0.44767  -0.44296  -0.43844  -0.43667  -0.43443
 Alpha  occ. eigenvalues --   -0.43104  -0.42714  -0.42445  -0.42347  -0.42091
 Alpha  occ. eigenvalues --   -0.41587  -0.41362  -0.40957  -0.40880  -0.40668
 Alpha  occ. eigenvalues --   -0.40515  -0.40355  -0.39812  -0.39725  -0.39401
 Alpha  occ. eigenvalues --   -0.39067  -0.38935  -0.38809  -0.38251  -0.37923
 Alpha  occ. eigenvalues --   -0.37517  -0.37406  -0.37107  -0.36816  -0.36373
 Alpha  occ. eigenvalues --   -0.35694  -0.35554  -0.34932  -0.33823  -0.33154
 Alpha  occ. eigenvalues --   -0.32612  -0.32274  -0.31488  -0.30735  -0.30518
 Alpha  occ. eigenvalues --   -0.29631  -0.29424  -0.29079  -0.28638  -0.28171
 Alpha  occ. eigenvalues --   -0.28041  -0.27874  -0.27547  -0.27295  -0.27071
 Alpha  occ. eigenvalues --   -0.26642  -0.26430  -0.26412  -0.25971  -0.25194
 Alpha  occ. eigenvalues --   -0.24600  -0.18896  -0.18667  -0.18600
 Alpha virt. eigenvalues --   -0.06892  -0.05046  -0.04736  -0.02763  -0.01778
 Alpha virt. eigenvalues --   -0.01144  -0.00934  -0.00546   0.00370   0.00749
 Alpha virt. eigenvalues --    0.01059   0.01240   0.01328   0.01729   0.02069
 Alpha virt. eigenvalues --    0.02206   0.02274   0.02526   0.02734   0.02917
 Alpha virt. eigenvalues --    0.03175   0.03413   0.03524   0.03641   0.03916
 Alpha virt. eigenvalues --    0.04060   0.04116   0.04240   0.04551   0.04973
 Alpha virt. eigenvalues --    0.05114   0.05169   0.05479   0.05700   0.05862
 Alpha virt. eigenvalues --    0.06155   0.06451   0.06537   0.06659   0.06943
 Alpha virt. eigenvalues --    0.07019   0.07325   0.07442   0.07715   0.07983
 Alpha virt. eigenvalues --    0.08008   0.08170   0.08486   0.08606   0.08838
 Alpha virt. eigenvalues --    0.09055   0.09094   0.09223   0.09480   0.09687
 Alpha virt. eigenvalues --    0.09810   0.10215   0.10271   0.10338   0.10481
 Alpha virt. eigenvalues --    0.10770   0.10830   0.10912   0.11160   0.11331
 Alpha virt. eigenvalues --    0.11499   0.11705   0.11894   0.11979   0.12182
 Alpha virt. eigenvalues --    0.12505   0.12662   0.12744   0.12797   0.13090
 Alpha virt. eigenvalues --    0.13441   0.13519   0.13620   0.13864   0.14105
 Alpha virt. eigenvalues --    0.14235   0.14394   0.14512   0.14680   0.14842
 Alpha virt. eigenvalues --    0.15094   0.15245   0.15404   0.15577   0.15794
 Alpha virt. eigenvalues --    0.15878   0.15994   0.16228   0.16454   0.16811
 Alpha virt. eigenvalues --    0.17056   0.17269   0.17436   0.17534   0.17584
 Alpha virt. eigenvalues --    0.17787   0.17901   0.18014   0.18251   0.18432
 Alpha virt. eigenvalues --    0.18707   0.18720   0.18874   0.19084   0.19217
 Alpha virt. eigenvalues --    0.19366   0.19408   0.19569   0.19709   0.19829
 Alpha virt. eigenvalues --    0.19920   0.20194   0.20463   0.20594   0.20788
 Alpha virt. eigenvalues --    0.20915   0.21083   0.21193   0.21404   0.21669
 Alpha virt. eigenvalues --    0.21775   0.21881   0.22133   0.22426   0.22490
 Alpha virt. eigenvalues --    0.22603   0.22869   0.23077   0.23181   0.23304
 Alpha virt. eigenvalues --    0.23358   0.23708   0.23756   0.24003   0.24068
 Alpha virt. eigenvalues --    0.24329   0.24544   0.24852   0.25068   0.25190
 Alpha virt. eigenvalues --    0.25200   0.25506   0.25581   0.25651   0.25882
 Alpha virt. eigenvalues --    0.25986   0.26133   0.26377   0.26626   0.26798
 Alpha virt. eigenvalues --    0.26853   0.27111   0.27313   0.27428   0.27515
 Alpha virt. eigenvalues --    0.27722   0.27934   0.28114   0.28293   0.28422
 Alpha virt. eigenvalues --    0.28851   0.28929   0.29129   0.29139   0.29414
 Alpha virt. eigenvalues --    0.29663   0.29703   0.30117   0.30306   0.30425
 Alpha virt. eigenvalues --    0.30471   0.30877   0.30968   0.31027   0.31207
 Alpha virt. eigenvalues --    0.31483   0.31558   0.31811   0.31967   0.32075
 Alpha virt. eigenvalues --    0.32382   0.32482   0.33137   0.33161   0.33295
 Alpha virt. eigenvalues --    0.33606   0.33728   0.34296   0.34417   0.34564
 Alpha virt. eigenvalues --    0.34860   0.35205   0.35428   0.35487   0.35880
 Alpha virt. eigenvalues --    0.36016   0.36213   0.36438   0.36760   0.37046
 Alpha virt. eigenvalues --    0.37199   0.37662   0.37711   0.38231   0.38476
 Alpha virt. eigenvalues --    0.38734   0.39010   0.39164   0.39551   0.39727
 Alpha virt. eigenvalues --    0.39994   0.40045   0.40485   0.40689   0.40945
 Alpha virt. eigenvalues --    0.41292   0.41401   0.41471   0.42011   0.42268
 Alpha virt. eigenvalues --    0.42463   0.42751   0.43171   0.43465   0.43860
 Alpha virt. eigenvalues --    0.43902   0.44519   0.44935   0.45394   0.45682
 Alpha virt. eigenvalues --    0.46392   0.46541   0.46671   0.46776   0.47193
 Alpha virt. eigenvalues --    0.47646   0.48318   0.48494   0.48852   0.49475
 Alpha virt. eigenvalues --    0.49607   0.50041   0.50557   0.51307   0.51453
 Alpha virt. eigenvalues --    0.52030   0.52227   0.53039   0.53661   0.53955
 Alpha virt. eigenvalues --    0.54221   0.55016   0.55255   0.56288   0.57340
 Alpha virt. eigenvalues --    0.57409   0.57788   0.57907   0.58731   0.59323
 Alpha virt. eigenvalues --    0.61006   0.61204   0.61950   0.62284   0.62641
 Alpha virt. eigenvalues --    0.63170   0.63735   0.63887   0.64238   0.64932
 Alpha virt. eigenvalues --    0.65633   0.66028   0.66523   0.66864   0.67147
 Alpha virt. eigenvalues --    0.67695   0.67991   0.68791   0.69177   0.69491
 Alpha virt. eigenvalues --    0.69915   0.70122   0.70357   0.70873   0.71325
 Alpha virt. eigenvalues --    0.71546   0.72175   0.72378   0.72861   0.72962
 Alpha virt. eigenvalues --    0.73382   0.73526   0.73789   0.74003   0.74564
 Alpha virt. eigenvalues --    0.74832   0.75227   0.75803   0.75916   0.76363
 Alpha virt. eigenvalues --    0.76686   0.77580   0.77731   0.78171   0.78824
 Alpha virt. eigenvalues --    0.79329   0.79855   0.80018   0.80135   0.80891
 Alpha virt. eigenvalues --    0.81189   0.81964   0.82393   0.83190   0.83813
 Alpha virt. eigenvalues --    0.84915   0.85279   0.85779   0.86252   0.86345
 Alpha virt. eigenvalues --    0.87300   0.87807   0.88089   0.88351   0.88388
 Alpha virt. eigenvalues --    0.88875   0.88991   0.89464   0.89981   0.90379
 Alpha virt. eigenvalues --    0.90422   0.90641   0.91359   0.91547   0.91766
 Alpha virt. eigenvalues --    0.92262   0.92824   0.93133   0.93372   0.93535
 Alpha virt. eigenvalues --    0.93894   0.94875   0.95405   0.95807   0.95906
 Alpha virt. eigenvalues --    0.96287   0.96745   0.97603   0.97770   0.97870
 Alpha virt. eigenvalues --    0.98298   0.99081   0.99163   0.99681   0.99958
 Alpha virt. eigenvalues --    1.00212   1.00838   1.00964   1.01326   1.01606
 Alpha virt. eigenvalues --    1.01928   1.02053   1.02441   1.03060   1.03264
 Alpha virt. eigenvalues --    1.03566   1.03833   1.04470   1.04633   1.05323
 Alpha virt. eigenvalues --    1.05486   1.05871   1.06292   1.06991   1.07092
 Alpha virt. eigenvalues --    1.07356   1.08290   1.08676   1.09350   1.10323
 Alpha virt. eigenvalues --    1.10520   1.11203   1.11920   1.11993   1.12525
 Alpha virt. eigenvalues --    1.13119   1.13564   1.13718   1.14781   1.14842
 Alpha virt. eigenvalues --    1.15310   1.15405   1.16236   1.16832   1.17296
 Alpha virt. eigenvalues --    1.17397   1.17696   1.17844   1.18668   1.19060
 Alpha virt. eigenvalues --    1.19262   1.19651   1.20220   1.20496   1.20679
 Alpha virt. eigenvalues --    1.21375   1.21641   1.22107   1.22359   1.23071
 Alpha virt. eigenvalues --    1.23500   1.23546   1.24488   1.25176   1.25595
 Alpha virt. eigenvalues --    1.25761   1.26047   1.26869   1.27004   1.27351
 Alpha virt. eigenvalues --    1.27936   1.28198   1.28579   1.29359   1.29663
 Alpha virt. eigenvalues --    1.30706   1.31462   1.31780   1.32307   1.32728
 Alpha virt. eigenvalues --    1.33500   1.33782   1.34050   1.34683   1.35104
 Alpha virt. eigenvalues --    1.35244   1.35749   1.36419   1.36792   1.36884
 Alpha virt. eigenvalues --    1.37773   1.37813   1.38513   1.38636   1.38828
 Alpha virt. eigenvalues --    1.39377   1.39693   1.39908   1.39966   1.40343
 Alpha virt. eigenvalues --    1.41084   1.41394   1.41883   1.42169   1.42577
 Alpha virt. eigenvalues --    1.42795   1.43667   1.43877   1.44392   1.44649
 Alpha virt. eigenvalues --    1.44850   1.45103   1.46052   1.46793   1.47065
 Alpha virt. eigenvalues --    1.47764   1.48083   1.48792   1.49216   1.49673
 Alpha virt. eigenvalues --    1.50067   1.50744   1.51341   1.51907   1.52088
 Alpha virt. eigenvalues --    1.53110   1.54204   1.54853   1.54999   1.56164
 Alpha virt. eigenvalues --    1.56560   1.57337   1.58392   1.58751   1.59123
 Alpha virt. eigenvalues --    1.59632   1.59974   1.60331   1.61106   1.61590
 Alpha virt. eigenvalues --    1.61920   1.63237   1.63552   1.64288   1.64575
 Alpha virt. eigenvalues --    1.65457   1.65870   1.66449   1.67381   1.67449
 Alpha virt. eigenvalues --    1.68105   1.68665   1.69764   1.69875   1.70613
 Alpha virt. eigenvalues --    1.71100   1.72157   1.72831   1.73315   1.73616
 Alpha virt. eigenvalues --    1.74317   1.75071   1.75513   1.76707   1.76919
 Alpha virt. eigenvalues --    1.77890   1.78630   1.79737   1.80127   1.80367
 Alpha virt. eigenvalues --    1.81262   1.81761   1.81918   1.82238   1.82571
 Alpha virt. eigenvalues --    1.82893   1.83100   1.84234   1.84343   1.85012
 Alpha virt. eigenvalues --    1.85396   1.85580   1.85940   1.86574   1.86685
 Alpha virt. eigenvalues --    1.86803   1.87344   1.87831   1.88205   1.88617
 Alpha virt. eigenvalues --    1.89318   1.90060   1.90222   1.91136   1.91766
 Alpha virt. eigenvalues --    1.92202   1.92683   1.93326   1.93450   1.93543
 Alpha virt. eigenvalues --    1.93954   1.94449   1.94683   1.94779   1.95121
 Alpha virt. eigenvalues --    1.95539   1.95709   1.96218   1.96291   1.96571
 Alpha virt. eigenvalues --    1.96819   1.96876   1.97270   1.97785   1.97999
 Alpha virt. eigenvalues --    1.98271   1.98834   1.99289   1.99513   1.99740
 Alpha virt. eigenvalues --    2.00242   2.00579   2.01452   2.01720   2.02013
 Alpha virt. eigenvalues --    2.02645   2.03682   2.03825   2.03998   2.04335
 Alpha virt. eigenvalues --    2.04422   2.04857   2.05174   2.05460   2.06412
 Alpha virt. eigenvalues --    2.07120   2.07372   2.07916   2.08381   2.09115
 Alpha virt. eigenvalues --    2.09598   2.09940   2.10206   2.10477   2.10986
 Alpha virt. eigenvalues --    2.11366   2.12077   2.12255   2.12752   2.13023
 Alpha virt. eigenvalues --    2.13309   2.13520   2.13931   2.14222   2.14756
 Alpha virt. eigenvalues --    2.15083   2.15289   2.15740   2.16146   2.16255
 Alpha virt. eigenvalues --    2.17103   2.18113   2.19343   2.19516   2.20118
 Alpha virt. eigenvalues --    2.20650   2.21103   2.21221   2.22135   2.22901
 Alpha virt. eigenvalues --    2.23561   2.24106   2.24700   2.25615   2.26043
 Alpha virt. eigenvalues --    2.26516   2.26769   2.27010   2.27280   2.27650
 Alpha virt. eigenvalues --    2.27976   2.28485   2.29235   2.29724   2.30049
 Alpha virt. eigenvalues --    2.30623   2.30689   2.31503   2.31728   2.32321
 Alpha virt. eigenvalues --    2.33593   2.34032   2.34523   2.34759   2.35052
 Alpha virt. eigenvalues --    2.35434   2.35718   2.36455   2.36821   2.36952
 Alpha virt. eigenvalues --    2.37360   2.37810   2.38202   2.38715   2.39218
 Alpha virt. eigenvalues --    2.40401   2.41220   2.41474   2.41959   2.43040
 Alpha virt. eigenvalues --    2.43912   2.45043   2.45398   2.47447   2.47649
 Alpha virt. eigenvalues --    2.48229   2.48665   2.49401   2.50205   2.50477
 Alpha virt. eigenvalues --    2.51052   2.51141   2.51897   2.51989   2.52244
 Alpha virt. eigenvalues --    2.53154   2.53201   2.53249   2.53425   2.53757
 Alpha virt. eigenvalues --    2.54544   2.54992   2.55950   2.56373   2.56580
 Alpha virt. eigenvalues --    2.56889   2.57237   2.57650   2.58292   2.58457
 Alpha virt. eigenvalues --    2.58836   2.58961   2.60274   2.62790   2.63817
 Alpha virt. eigenvalues --    2.64002   2.64242   2.65676   2.66242   2.66319
 Alpha virt. eigenvalues --    2.67589   2.68185   2.68588   2.68996   2.69180
 Alpha virt. eigenvalues --    2.69261   2.69701   2.70297   2.70364   2.70729
 Alpha virt. eigenvalues --    2.70964   2.71238   2.71353   2.71804   2.72370
 Alpha virt. eigenvalues --    2.72711   2.73134   2.73530   2.73752   2.74273
 Alpha virt. eigenvalues --    2.75066   2.75365   2.75784   2.76239   2.76343
 Alpha virt. eigenvalues --    2.76999   2.77316   2.78395   2.78808   2.79272
 Alpha virt. eigenvalues --    2.80365   2.80762   2.81626   2.81942   2.82177
 Alpha virt. eigenvalues --    2.82587   2.82887   2.83031   2.83668   2.84986
 Alpha virt. eigenvalues --    2.85251   2.85555   2.85819   2.86012   2.87380
 Alpha virt. eigenvalues --    2.88954   2.89341   2.89634   2.90133   2.91855
 Alpha virt. eigenvalues --    2.92862   2.94343   2.94680   2.95621   2.96130
 Alpha virt. eigenvalues --    2.96417   2.97021   2.98375   2.99428   2.99912
 Alpha virt. eigenvalues --    3.00852   3.01867   3.02498   3.02974   3.04185
 Alpha virt. eigenvalues --    3.04767   3.05819   3.06211   3.06985   3.07589
 Alpha virt. eigenvalues --    3.08282   3.09651   3.12702   3.17086   3.18059
 Alpha virt. eigenvalues --    3.19261   3.23394   3.24201   3.25205   3.25709
 Alpha virt. eigenvalues --    3.26452   3.27069   3.27536   3.27799   3.29159
 Alpha virt. eigenvalues --    3.29286   3.30313   3.30996   3.31253   3.32656
 Alpha virt. eigenvalues --    3.33341   3.33868   3.35556   3.35880   3.40298
 Alpha virt. eigenvalues --    3.40726   3.41854   3.43175   3.43754   3.43877
 Alpha virt. eigenvalues --    3.44542   3.45074   3.45505   3.46524   3.47131
 Alpha virt. eigenvalues --    3.47492   3.48128   3.48515   3.48690   3.49034
 Alpha virt. eigenvalues --    3.52039   3.52933   3.53615   3.54669   3.54969
 Alpha virt. eigenvalues --    3.56093   3.57146   3.58120   3.58532   3.59502
 Alpha virt. eigenvalues --    3.64095   3.69252   3.69825   3.89197   3.91736
 Alpha virt. eigenvalues --    3.92591   8.88428  11.52869  11.69465
          Condensed to atoms (all electrons):
 Mulliken charges:
               1
     1  Zn   0.690795
     2  O   -0.915995
     3  O   -0.897744
     4  O   -0.493291
     5  O   -0.433188
     6  C    0.420999
     7  Zn   0.556292
     8  O   -0.465570
     9  O   -0.476626
    10  O   -0.423892
    11  O   -0.423323
    12  C    0.459974
    13  C    0.440248
    14  H    0.082093
    15  H    0.087672
    16  H    0.076791
    17  C   -0.348823
    18  C   -0.014582
    19  C   -0.648344
    20  C   -0.005912
    21  C   -0.099357
    22  N    0.365785
    23  H    0.144392
    24  H    0.188126
    25  H    0.186876
    26  H    0.138200
    27  H    0.182722
    28  C   -0.273720
    29  C    0.068810
    30  C   -0.566622
    31  C    0.162317
    32  C   -0.235446
    33  N    0.158460
    34  H    0.145456
    35  H    0.192291
    36  H    0.144696
    37  H    0.143260
    38  H    0.186893
    39  H    0.548668
    40  H    0.471404
    41  H    0.359760
    42  C   -0.309025
    43  C    0.020246
    44  C   -0.133878
    45  O   -0.310690
    46  C   -0.069635
    47  C   -0.349381
    48  C    0.118632
    49  O   -0.346542
    50  H    0.139033
    51  H    0.130944
    52  H    0.144476
    53  H    0.131458
    54  H    0.120411
    55  H    0.127813
    56  H    0.131159
    57  H    0.147194
    58  H    0.207860
    59  H    0.139434
    60  N   -0.489939
    61  C    0.163464
    62  C   -0.613244
    63  H    0.237139
    64  H    0.159991
    65  H    0.162363
    66  H    0.162745
    67  H    0.151113
    68  C    0.179357
    69  C   -0.625533
    70  H    0.176515
    71  H    0.167887
    72  H    0.149345
    73  H    0.233922
    74  H    0.170325
    75  C    0.196449
    76  C   -0.604442
    77  H    0.236084
    78  H    0.155090
    79  H    0.151536
    80  H    0.207565
    81  H    0.148696
    82  C   -0.405399
    83  C   -0.578240
    84  H    0.212673
    85  H    0.221965
    86  H    0.187771
    87  H    0.157485
    88  H    0.141877
    89  Br  -0.734616
 Sum of Mulliken charges =   0.00000
 Mulliken charges with hydrogens summed into heavy atoms:
               1
     1  Zn   0.690795
     2  O   -0.556235
     3  O    0.122328
     4  O   -0.493291
     5  O   -0.433188
     6  C    0.503092
     7  Zn   0.556292
     8  O   -0.465570
     9  O   -0.476626
    10  O   -0.423892
    11  O   -0.423323
    12  C    0.547645
    13  C    0.517039
    17  C   -0.160697
    18  C    0.172294
    19  C   -0.503952
    20  C    0.132289
    21  C    0.083365
    22  N    0.365785
    28  C   -0.081430
    29  C    0.213506
    30  C   -0.421166
    31  C    0.305576
    32  C   -0.048553
    33  N    0.158460
    42  C   -0.039048
    43  C    0.164723
    44  C    0.117992
    45  O   -0.310690
    46  C    0.189337
    47  C   -0.202187
    48  C    0.465927
    49  O   -0.346542
    60  N   -0.489939
    61  C    0.560595
    62  C   -0.137023
    68  C    0.523759
    69  C   -0.071942
    75  C    0.587623
    76  C   -0.096644
    82  C    0.029239
    83  C   -0.091107
    89  Br  -0.734616
 Electronic spatial extent (au):  <R**2>=          33579.2748
 Charge=              0.0000 electrons
 Dipole moment (field-independent basis, Debye):
    X=             -7.8402    Y=             -6.0191    Z=             -2.5783  Tot=             10.2150
 Quadrupole moment (field-independent basis, Debye-Ang):
   XX=           -289.0541   YY=           -250.7707   ZZ=           -241.1773
   XY=             22.7011   XZ=             23.7260   YZ=              8.4531
 Traceless Quadrupole moment (field-independent basis, Debye-Ang):
   XX=            -28.7201   YY=              9.5633   ZZ=             19.1568
   XY=             22.7011   XZ=             23.7260   YZ=              8.4531
 Octapole moment (field-independent basis, Debye-Ang**2):
  XXX=           -669.2798  YYY=             75.1590  ZZZ=            -50.1009  XYY=            -16.5202
  XXY=           -196.8713  XXZ=            184.5996  XZZ=            -32.5314  YZZ=           -109.2888
  YYZ=            101.6499  XYZ=             47.4398
 Hexadecapole moment (field-independent basis, Debye-Ang**3):
 XXXX=         -20446.1898 YYYY=          -9230.6181 ZZZZ=         -11226.6105 XXXY=           1358.0719
 XXXZ=            265.6840 YYYX=            632.2338 YYYZ=           1124.1781 ZZZX=           -635.4041
 ZZZY=           1081.3001 XXYY=          -4647.8680 XXZZ=          -5640.9274 YYZZ=          -3511.3401
 XXYZ=            286.1051 YYXZ=            -85.9456 ZZXY=            -90.1177
 N-N= 6.811582837041D+03 E-N=-2.485270072399D+04  KE= 4.760199509853D+03
  Exact polarizability: 487.960  32.575 447.695   5.698 -13.762 425.439
 Approx polarizability: 666.573  57.811 650.216   4.102 -14.114 584.736
   1 Symmetry operations used in ECPInt.
 ECPInt:  NShTT=   66066 NPrTT=  291632 LenC2=   48791 LenP2D=  124358.
 LDataN:  DoStor=T MaxTD1= 7 Len=  274
 Calling FoFJK, ICntrl=    100127 FMM=F ISym2X=0 I1Cent= 0 IOpClX= 0 NMat=1 NMatS=1 NMatT=0.
 -------------------------------------------------------------------
 Center     Atomic                   Forces (Hartrees/Bohr)
 Number     Number              X              Y              Z
 -------------------------------------------------------------------
      1       30           0.007078420    0.004343235    0.002052685
      2        8           0.001565107   -0.011368928   -0.001219803
      3        8           0.006673088   -0.002306666   -0.004918143
      4        8          -0.000000000   -0.000000000   -0.000000000
      5        8          -0.000000000   -0.000000000   -0.000000000
      6        6          -0.000000000   -0.000000000   -0.000000000
      7       30          -0.007852872   -0.004428469    0.003553461
      8        8          -0.000000000   -0.000000000   -0.000000000
      9        8          -0.000000000   -0.000000000   -0.000000000
     10        8          -0.000000000   -0.000000000   -0.000000000
     11        8          -0.000000000   -0.000000000   -0.000000000
     12        6          -0.000000000   -0.000000000   -0.000000000
     13        6          -0.000000000   -0.000000000   -0.000000000
     14        1          -0.000000000   -0.000000000   -0.000000000
     15        1          -0.000000000   -0.000000000   -0.000000000
     16        1          -0.000000000   -0.000000000   -0.000000000
     17        6          -0.000000000   -0.000000000   -0.000000000
     18        6          -0.000000000   -0.000000000   -0.000000000
     19        6          -0.000000000   -0.000000000   -0.000000000
     20        6          -0.000000000   -0.000000000   -0.000000000
     21        6          -0.000000000   -0.000000000   -0.000000000
     22        7          -0.000000000   -0.000000000   -0.000000000
     23        1          -0.000000000   -0.000000000   -0.000000000
     24        1          -0.000000000   -0.000000000   -0.000000000
     25        1          -0.000000000   -0.000000000   -0.000000000
     26        1          -0.000000000   -0.000000000   -0.000000000
     27        1          -0.000000000   -0.000000000   -0.000000000
     28        6          -0.000000000   -0.000000000   -0.000000000
     29        6          -0.000000000   -0.000000000   -0.000000000
     30        6          -0.000000000   -0.000000000   -0.000000000
     31        6          -0.000000000   -0.000000000   -0.000000000
     32        6          -0.000000000   -0.000000000   -0.000000000
     33        7          -0.000000000   -0.000000000   -0.000000000
     34        1          -0.000000000   -0.000000000   -0.000000000
     35        1          -0.000000000   -0.000000000   -0.000000000
     36        1          -0.000000000   -0.000000000   -0.000000000
     37        1          -0.000000000   -0.000000000   -0.000000000
     38        1          -0.000000000   -0.000000000   -0.000000000
     39        1           0.002844109   -0.000393671    0.007993994
     40        1          -0.010317482   -0.000239974   -0.004208031
     41        1          -0.000008953    0.011551564   -0.003664690
     42        6          -0.000358440    0.001176150   -0.000622840
     43        6          -0.000829869   -0.000914808    0.000683390
     44        6          -0.004205378    0.006970456   -0.013742098
     45        8          -0.010501570    0.002289500    0.012886606
     46        6           0.012190711   -0.008868933    0.004892105
     47        6          -0.012256890    0.022300766   -0.004308221
     48        6          -0.022042738   -0.010799226    0.002508847
     49        8           0.038912902   -0.011791547    0.004234010
     50        1           0.000767610    0.000470841   -0.000173954
     51        1          -0.000684221    0.000344222   -0.000037253
     52        1           0.000898254   -0.000298348    0.000109291
     53        1           0.000595719   -0.000137097   -0.001095047
     54        1           0.000229585    0.000136037   -0.000968917
     55        1           0.000902966   -0.000457954   -0.000116966
     56        1           0.000767441   -0.000778262   -0.000379713
     57        1          -0.000968766   -0.000478969   -0.001845535
     58        1          -0.000846446   -0.000366460   -0.000747947
     59        1          -0.000611603    0.000603878    0.001623317
     60        7           0.000467599   -0.000460597    0.000532185
     61        6           0.004214437    0.003248307   -0.001579603
     62        6           0.000536440   -0.000257509    0.000264381
     63        1           0.000896143   -0.000135240   -0.000782902
     64        1          -0.000102476    0.000707699    0.000156596
     65        1           0.000787932    0.000136994    0.000248540
     66        1           0.000073407   -0.000372590   -0.000114896
     67        1          -0.000173180   -0.000071487    0.000409023
     68        6          -0.000096240   -0.000470213    0.005749078
     69        6          -0.000296162   -0.000237165    0.000431011
     70        1           0.000135625   -0.000424555    0.000276388
     71        1          -0.000090618    0.000556373    0.000313270
     72        1          -0.000517891   -0.000338276    0.000421025
     73        1          -0.000592743   -0.000187159   -0.000887102
     74        1          -0.000325388    0.000196259   -0.000151077
     75        6          -0.004302222    0.002995452   -0.001144106
     76        6           0.000019185   -0.000136502   -0.000965512
     77        1          -0.001067887   -0.000582373   -0.000754196
     78        1          -0.000162474    0.000564877    0.000259125
     79        1          -0.000266141    0.000463444   -0.000848226
     80        1           0.000095333   -0.000586384   -0.000475640
     81        1           0.000459843    0.000132928   -0.000074372
     82        6           0.000278693   -0.003544379   -0.003206661
     83        6           0.000340914   -0.000778825    0.000178142
     84        1          -0.000763281   -0.000565357   -0.000676440
     85        1           0.000335365   -0.000607385   -0.001226061
     86        1           0.000332238   -0.000524546   -0.000301359
     87        1          -0.000233675    0.000006443    0.000438935
     88        1           0.000512369    0.000069437    0.000254224
     89       35           0.000797854    0.000283629   -0.000056788
 -------------------------------------------------------------------
 Cartesian Forces:  Max     0.038912902 RMS     0.004153472

 GradGradGradGradGradGradGradGradGradGradGradGradGradGradGradGradGradGrad
 Berny optimization.
 Search for a local minimum.
 Step number   1 out of a maximum of  277
 All quantities printed in internal units (Hartrees-Bohrs-Radians)
 Second derivative matrix not updated -- analytic derivatives used.
 ITU=  0
     Eigenvalues ---    0.00003   0.00004   0.00004   0.00011   0.00015
     Eigenvalues ---    0.00029   0.00032   0.00035   0.00046   0.00060
     Eigenvalues ---    0.00064   0.00068   0.00088   0.00094   0.00111
     Eigenvalues ---    0.00151   0.00186   0.00198   0.00224   0.00266
     Eigenvalues ---    0.00301   0.00355   0.00362   0.00409   0.00507
     Eigenvalues ---    0.00526   0.00554   0.00583   0.00587   0.00663
     Eigenvalues ---    0.00884   0.00961   0.01021   0.01180   0.01213
     Eigenvalues ---    0.01256   0.01276   0.01351   0.01425   0.01477
     Eigenvalues ---    0.01674   0.01739   0.01947   0.02056   0.02258
     Eigenvalues ---    0.02632   0.02672   0.02867   0.03066   0.03453
     Eigenvalues ---    0.03587   0.03650   0.03667   0.03740   0.04331
     Eigenvalues ---    0.04348   0.04545   0.04655   0.04904   0.05249
     Eigenvalues ---    0.05565   0.05596   0.05704   0.05812   0.06016
     Eigenvalues ---    0.06043   0.06554   0.06600   0.06630   0.06929
     Eigenvalues ---    0.07192   0.07457   0.07690   0.07732   0.07857
     Eigenvalues ---    0.07964   0.08554   0.08709   0.09168   0.09652
     Eigenvalues ---    0.09763   0.09808   0.10024   0.10173   0.10380
     Eigenvalues ---    0.11126   0.11349   0.11383   0.11473   0.11533
     Eigenvalues ---    0.12156   0.12484   0.12900   0.13316   0.13624
     Eigenvalues ---    0.13720   0.13831   0.13877   0.14079   0.14115
     Eigenvalues ---    0.14180   0.15061   0.15230   0.15347   0.15541
     Eigenvalues ---    0.16279   0.16305   0.16691   0.17944   0.18495
     Eigenvalues ---    0.19447   0.20218   0.20355   0.20428   0.20575
     Eigenvalues ---    0.21786   0.22080   0.22116   0.28329   0.32749
     Eigenvalues ---    0.32875   0.33031   0.35426   0.36429   0.37430
     Eigenvalues ---    0.39732   0.41361   0.47489   0.47552   0.49062
     Eigenvalues ---    0.51123   0.55363   0.59001   0.60674   0.61378
     Eigenvalues ---    0.62325   0.62539   0.66851   0.69554   0.75853
     Eigenvalues ---    0.76656   0.78278   0.78385   0.80793   0.81759
     Eigenvalues ---    0.82377   0.83093   0.83202   0.83582   0.86140
     Eigenvalues ---    0.86650   0.86948   0.87731   0.88799   0.91435
     Eigenvalues ---    0.92201   0.92266   0.93663   0.95237   0.95395
     Eigenvalues ---    0.98129   0.98771   1.00093   1.02998   1.46106
 RFO step:  Lambda=-1.28338220D-02 EMin= 3.10872819D-05
 Linear search not attempted -- first point.
 Variable       Old X    -DE/DX   Delta X   Delta X   Delta X     New X
                                 (Linear)    (Quad)   (Total)
    X1       -6.11184   0.00708   0.00000   0.05741   0.05741  -6.05443
    Y1       -0.22503   0.00434   0.00000   0.01683   0.01683  -0.20821
    Z1        0.75236   0.00205   0.00000  -0.00490  -0.00490   0.74746
    X2       -3.28021   0.00157   0.00000   0.02069   0.02069  -3.25952
    Y2       -2.39858  -0.01137   0.00000  -0.02467  -0.02467  -2.42325
    Z2       -0.82902  -0.00122   0.00000  -0.04534  -0.04534  -0.87436
    X3        0.32938   0.00667   0.00000   0.03529   0.03529   0.36467
    Y3        0.38782  -0.00231   0.00000  -0.01013  -0.01013   0.37769
    Z3       -0.07662  -0.00492   0.00000  -0.07176  -0.07176  -0.14838
    X4       -4.74536  -0.00000   0.00000   0.00000   0.00000  -4.74536
    Y4       -1.15602  -0.00000   0.00000   0.00000   0.00000  -1.15602
    Z4        4.31302  -0.00000   0.00000   0.00000   0.00000   4.31302
    X5       -1.79248  -0.00000   0.00000   0.00000   0.00000  -1.79248
    Y5        1.94867  -0.00000   0.00000   0.00000   0.00000   1.94867
    Z5        4.67541  -0.00000   0.00000   0.00000   0.00000   4.67541
    X6       -3.10418  -0.00000   0.00000   0.00000   0.00000  -3.10418
    Y6        0.15404  -0.00000   0.00000   0.00000   0.00000   0.15404
    Z6        5.50254  -0.00000   0.00000   0.00000   0.00000   5.50254
    X7       -1.43560  -0.00785   0.00000  -0.04926  -0.04926  -1.48486
    Y7        3.63927  -0.00443   0.00000  -0.03197  -0.03197   3.60730
    Z7        0.92245   0.00355   0.00000   0.02816   0.02816   0.95061
    X8       -4.16220  -0.00000   0.00000   0.00000   0.00000  -4.16220
    Y8        6.11320  -0.00000   0.00000   0.00000   0.00000   6.11320
    Z8        2.08206  -0.00000   0.00000   0.00000   0.00000   2.08206
    X9       -7.39167  -0.00000   0.00000   0.00000   0.00000  -7.39167
    Y9        3.29536  -0.00000   0.00000   0.00000   0.00000   3.29536
    Z9        2.41987  -0.00000   0.00000   0.00000   0.00000   2.41987
   X10       -3.13581  -0.00000   0.00000   0.00000   0.00000  -3.13581
   Y10        3.78362  -0.00000   0.00000   0.00000   0.00000   3.78362
   Z10       -2.82013  -0.00000   0.00000   0.00000   0.00000  -2.82013
   X11       -6.73021  -0.00000   0.00000   0.00000   0.00000  -6.73021
   Y11        1.43549  -0.00000   0.00000   0.00000   0.00000   1.43549
   Z11       -2.72661  -0.00000   0.00000   0.00000   0.00000  -2.72661
   X12       -6.39472  -0.00000   0.00000   0.00000   0.00000  -6.39472
   Y12        5.45269  -0.00000   0.00000   0.00000   0.00000   5.45269
   Z12        2.64691  -0.00000   0.00000   0.00000   0.00000   2.64691
   X13       -5.14236  -0.00000   0.00000   0.00000   0.00000  -5.14236
   Y13        2.91425  -0.00000   0.00000   0.00000   0.00000   2.91425
   Z13       -3.75675  -0.00000   0.00000   0.00000   0.00000  -3.75675
   X14       -2.80160  -0.00000   0.00000   0.00000   0.00000  -2.80160
   Y14       -0.39593  -0.00000   0.00000   0.00000   0.00000  -0.39593
   Z14        7.50505  -0.00000   0.00000   0.00000   0.00000   7.50505
   X15       -7.62066  -0.00000   0.00000   0.00000   0.00000  -7.62066
   Y15        6.95619  -0.00000   0.00000   0.00000   0.00000   6.95619
   Z15        3.43839  -0.00000   0.00000   0.00000   0.00000   3.43839
   X16       -5.59149  -0.00000   0.00000   0.00000   0.00000  -5.59149
   Y16        3.50492  -0.00000   0.00000   0.00000   0.00000   3.50492
   Z16       -5.71541  -0.00000   0.00000   0.00000   0.00000  -5.71541
   X17        3.79005  -0.00000   0.00000   0.00000   0.00000   3.79005
   Y17        5.43220  -0.00000   0.00000   0.00000   0.00000   5.43220
   Z17        0.02517  -0.00000   0.00000   0.00000   0.00000   0.02517
   X18        5.89448  -0.00000   0.00000   0.00000   0.00000   5.89448
   Y18        7.02981  -0.00000   0.00000   0.00000   0.00000   7.02981
   Z18        0.05116  -0.00000   0.00000   0.00000   0.00000   0.05116
   X19        5.62594  -0.00000   0.00000   0.00000   0.00000   5.62594
   Y19        9.47641  -0.00000   0.00000   0.00000   0.00000   9.47641
   Z19        1.02346  -0.00000   0.00000   0.00000   0.00000   1.02346
   X20        3.25983  -0.00000   0.00000   0.00000   0.00000   3.25983
   Y20       10.24547  -0.00000   0.00000   0.00000   0.00000  10.24547
   Z20        1.92812  -0.00000   0.00000   0.00000   0.00000   1.92812
   X21        1.24612  -0.00000   0.00000   0.00000   0.00000   1.24612
   Y21        8.53736  -0.00000   0.00000   0.00000   0.00000   8.53736
   Z21        1.83633  -0.00000   0.00000   0.00000   0.00000   1.83633
   X22        1.51710  -0.00000   0.00000   0.00000   0.00000   1.51710
   Y22        6.17924  -0.00000   0.00000   0.00000   0.00000   6.17924
   Z22        0.90776  -0.00000   0.00000   0.00000   0.00000   0.90776
   X23        7.23272  -0.00000   0.00000   0.00000   0.00000   7.23272
   Y23       10.76417  -0.00000   0.00000   0.00000   0.00000  10.76417
   Z23        1.07418  -0.00000   0.00000   0.00000   0.00000   1.07418
   X24        3.86313  -0.00000   0.00000   0.00000   0.00000   3.86313
   Y24        3.50435  -0.00000   0.00000   0.00000   0.00000   3.50435
   Z24       -0.69715  -0.00000   0.00000   0.00000   0.00000  -0.69715
   X25        7.69673  -0.00000   0.00000   0.00000   0.00000   7.69673
   Y25        6.35589  -0.00000   0.00000   0.00000   0.00000   6.35589
   Z25       -0.67608  -0.00000   0.00000   0.00000   0.00000  -0.67608
   X26        2.96771  -0.00000   0.00000   0.00000   0.00000   2.96771
   Y26       12.13170  -0.00000   0.00000   0.00000   0.00000  12.13170
   Z26        2.69538  -0.00000   0.00000   0.00000   0.00000   2.69538
   X27       -0.64036  -0.00000   0.00000   0.00000   0.00000  -0.64036
   Y27        9.01840  -0.00000   0.00000   0.00000   0.00000   9.01840
   Z27        2.50330  -0.00000   0.00000   0.00000   0.00000   2.50330
   X28      -10.00924  -0.00000   0.00000   0.00000   0.00000 -10.00924
   Y28       -3.70117  -0.00000   0.00000   0.00000   0.00000  -3.70117
   Z28        2.98183  -0.00000   0.00000   0.00000   0.00000   2.98183
   X29      -12.19268  -0.00000   0.00000   0.00000   0.00000 -12.19268
   Y29       -5.18192  -0.00000   0.00000   0.00000   0.00000  -5.18192
   Z29        3.11424  -0.00000   0.00000   0.00000   0.00000   3.11424
   X30      -13.81400  -0.00000   0.00000   0.00000   0.00000 -13.81400
   Y30       -5.25312  -0.00000   0.00000   0.00000   0.00000  -5.25312
   Z30        1.02322  -0.00000   0.00000   0.00000   0.00000   1.02322
   X31      -13.19594  -0.00000   0.00000   0.00000   0.00000 -13.19594
   Y31       -3.83908  -0.00000   0.00000   0.00000   0.00000  -3.83908
   Z31       -1.12678  -0.00000   0.00000   0.00000   0.00000  -1.12678
   X32      -10.97933  -0.00000   0.00000   0.00000   0.00000 -10.97933
   Y32       -2.40165  -0.00000   0.00000   0.00000   0.00000  -2.40165
   Z32       -1.11324  -0.00000   0.00000   0.00000   0.00000  -1.11324
   X33       -9.41951  -0.00000   0.00000   0.00000   0.00000  -9.41951
   Y33       -2.34327  -0.00000   0.00000   0.00000   0.00000  -2.34327
   Z33        0.90467  -0.00000   0.00000   0.00000   0.00000   0.90467
   X34      -15.53026  -0.00000   0.00000   0.00000   0.00000 -15.53026
   Y34       -6.39059  -0.00000   0.00000   0.00000   0.00000  -6.39059
   Z34        1.06915  -0.00000   0.00000   0.00000   0.00000   1.06915
   X35       -8.67313  -0.00000   0.00000   0.00000   0.00000  -8.67313
   Y35       -3.56530  -0.00000   0.00000   0.00000   0.00000  -3.56530
   Z35        4.54194  -0.00000   0.00000   0.00000   0.00000   4.54194
   X36      -12.60157  -0.00000   0.00000   0.00000   0.00000 -12.60157
   Y36       -6.24957  -0.00000   0.00000   0.00000   0.00000  -6.24957
   Z36        4.82419  -0.00000   0.00000   0.00000   0.00000   4.82419
   X37      -14.40317  -0.00000   0.00000   0.00000   0.00000 -14.40317
   Y37       -3.83793  -0.00000   0.00000   0.00000   0.00000  -3.83793
   Z37       -2.79214  -0.00000   0.00000   0.00000   0.00000  -2.79214
   X38      -10.39630  -0.00000   0.00000   0.00000   0.00000 -10.39630
   Y38       -1.25644  -0.00000   0.00000   0.00000   0.00000  -1.25644
   Z38       -2.72126  -0.00000   0.00000   0.00000   0.00000  -2.72126
   X39       -1.15272   0.00284   0.00000   0.04331   0.04331  -1.10940
   Y39       -1.02884  -0.00039   0.00000   0.00114   0.00114  -1.02769
   Z39       -0.47460   0.00799   0.00000   0.03868   0.03868  -0.43592
   X40        1.70050  -0.01032   0.00000  -0.07597  -0.07597   1.62453
   Y40       -0.21531  -0.00024   0.00000  -0.02941  -0.02941  -0.24473
   Z40        1.03704  -0.00421   0.00000   0.01547   0.01547   1.05251
   X41       -3.12855  -0.00001   0.00000   0.01231   0.01231  -3.11624
   Y41       -4.01284   0.01155   0.00000   0.03588   0.03588  -3.97697
   Z41        0.05519  -0.00366   0.00000   0.02052   0.02052   0.07571
   X42       11.64953  -0.00036   0.00000  -0.01693  -0.01693  11.63260
   Y42      -10.36782   0.00118   0.00000   0.01680   0.01680 -10.35102
   Z42        9.69419  -0.00062   0.00000  -0.00697  -0.00697   9.68723
   X43       11.39030  -0.00083   0.00000  -0.01632  -0.01632  11.37398
   Y43       -8.00645  -0.00091   0.00000   0.01182   0.01182  -7.99463
   Z43        8.83458   0.00068   0.00000  -0.01458  -0.01458   8.82001
   X44        8.95060  -0.00421   0.00000  -0.01921  -0.01921   8.93139
   Y44       -6.57009   0.00697   0.00000   0.02033   0.02033  -6.54976
   Z44        8.82355  -0.01374   0.00000  -0.04192  -0.04192   8.78163
   X45        8.60120  -0.01050   0.00000  -0.01915  -0.01915   8.58205
   Y45       -5.51303   0.00229   0.00000   0.00126   0.00126  -5.51178
   Z45        6.30065   0.01289   0.00000   0.02549   0.02549   6.32614
   X46        6.35007   0.01219   0.00000   0.03786   0.03786   6.38794
   Y46       -3.96709  -0.00887   0.00000  -0.02910  -0.02910  -3.99619
   Z46        6.05843   0.00489   0.00000   0.02704   0.02704   6.08548
   X47        6.29275  -0.01226   0.00000  -0.00570  -0.00570   6.28705
   Y47       -3.01839   0.02230   0.00000   0.00082   0.00082  -3.01757
   Z47        3.37982  -0.00431   0.00000   0.02372   0.02372   3.40354
   X48        7.14979  -0.02204   0.00000  -0.02815  -0.02815   7.12164
   Y48       -0.45171  -0.01080   0.00000  -0.00983  -0.00983  -0.46153
   Z48        2.70008   0.00251   0.00000   0.02442   0.02442   2.72450
   X49        4.35084   0.03891   0.00000   0.11531   0.11531   4.46616
   Y49       -1.02109  -0.01179   0.00000  -0.04486  -0.04486  -1.06595
   Z49        2.93281   0.00423   0.00000   0.05122   0.05122   2.98403
   X50       13.46746   0.00077   0.00000  -0.00867  -0.00867  13.45879
   Y50      -11.31756   0.00047   0.00000   0.02868   0.02868 -11.28888
   Z50        9.71594  -0.00017   0.00000   0.00512   0.00512   9.72106
   X51       10.05234  -0.00068   0.00000  -0.01987  -0.01987  10.03247
   Y51      -11.44319   0.00034   0.00000   0.01535   0.01535 -11.42784
   Z51       10.41304  -0.00004   0.00000  -0.01318  -0.01318  10.39986
   X52       13.00828   0.00090   0.00000  -0.00078  -0.00078  13.00749
   Y52       -6.97104  -0.00030   0.00000   0.00138   0.00138  -6.96966
   Z52        8.10029   0.00011   0.00000  -0.00037  -0.00037   8.09992
   X53        9.00525   0.00060   0.00000  -0.00543  -0.00543   8.99982
   Y53       -5.00888  -0.00014   0.00000   0.00607   0.00607  -5.00280
   Z53       10.20588  -0.00110   0.00000  -0.02357  -0.02357  10.18231
   X54        7.34960   0.00023   0.00000  -0.01139  -0.01139   7.33822
   Y54       -7.80149   0.00014   0.00000   0.01210   0.01210  -7.78940
   Z54        9.32244  -0.00097   0.00000  -0.02755  -0.02755   9.29489
   X55        6.38793   0.00090   0.00000   0.03021   0.03021   6.41814
   Y55       -2.36825  -0.00046   0.00000  -0.02328  -0.02328  -2.39154
   Z55        7.38674  -0.00012   0.00000   0.02450   0.02450   7.41124
   X56        4.64709   0.00077   0.00000   0.02734   0.02734   4.67443
   Y56       -5.09409  -0.00078   0.00000  -0.02229  -0.02229  -5.11638
   Z56        6.46108  -0.00038   0.00000   0.02184   0.02184   6.48293
   X57        6.35357  -0.00097   0.00000  -0.01177  -0.01177   6.34181
   Y57       -4.47781  -0.00048   0.00000   0.00461   0.00461  -4.47320
   Z57        1.93782  -0.00185   0.00000   0.00879   0.00879   1.94660
[...]
 00000836,-0.00000331,0.00007798,-0.00003694,0.00004088,0.00005590,-0.0
 0022407,-0.00009172,0.00033784,-0.00013982,-0.00013167,-0.00000316,-0.
 00006171,-0.00006863,0.00062812,0.00027523,0.00081525,-0.00022459,0.00
 073216,0.00010503,-0.00050380,-0.00017926,-0.00019023,-0.00022091,0.00
 013916,-0.00012354,0.00006883,-0.00004991,0.00001210,-0.00064321,0.000
 84630,0.00016966,-0.00011030,-0.00001128,-0.00005631,0.00010915,-0.000
 08678,-0.00017921,-0.00004983,-0.00001821,-0.00007774,0.00001028,0.000
 03555,0.00002433,0.00003167,-0.00006386,0.00001788,0.00000251,0.000029
 52,-0.00000322,0.00000885,0.00002593,0.00002396,0.00000048,0.00001243,
 0.00000110,0.00894192,0.00275253,-0.00935311,-0.16974319,-0.04837568,0
 .12383885,0.00069966,-0.00048236,-0.00005919,-0.00013139,0.00236018,-0
 .00133681,-0.00179094,-0.00017404,0.00057496,0.18052951,0.00008339,-0.
 00010190,0.00006680,-0.00016384,-0.00003654,0.00002130,-0.00012893,0.0
 0004389,0.00044716,0.,0.,0.,0.,0.,0.,0.,0.,0.,0.00015936,-0.00018570,0
 .00013651,0.,0.,0.,0.,0.,0.,0.,0.,0.,0.,0.,0.,0.,0.,0.,0.,0.,0.,0.,0.,
 0.,0.,0.,0.,0.,0.,0.,0.,0.,0.,0.,0.,0.,0.,0.,0.,0.,0.,0.,0.,0.,0.,0.,0
 .,0.,0.,0.,0.,0.,0.,0.,0.,0.,0.,0.,0.,0.,0.,0.,0.,0.,0.,0.,0.,0.,0.,0.
 ,0.,0.,0.,0.,0.,0.,0.,0.,0.,0.,0.,0.,0.,0.,0.,0.,0.,0.,0.,0.,0.,0.,0.,
 0.,0.,0.,0.00020292,0.00011376,-0.00009018,-0.00009290,0.00003806,-0.0
 0000899,-0.00000519,0.00000943,0.00000987,0.00000119,-0.00000140,-0.00
 000025,-0.00000163,0.00000056,0.00000127,-0.00000171,0.00000634,-0.000
 01018,0.00000993,-0.00001481,0.00001281,-0.00000525,0.00001158,-0.0000
 0739,-0.00001219,0.00001273,-0.00000118,-0.00002174,0.00000600,-0.0000
 0551,0.00005393,-0.00002759,0.00002445,0.00000061,-0.00000069,0.000000
 28,-0.00000018,0.00000028,0.00000018,0.00000019,0.00000019,-0.00000023
 ,0.00000024,-0.00000061,0.00000115,-0.00000030,-0.00000064,0.00000118,
 0.00000102,-0.00000100,0.00000047,0.00000076,-0.00000067,0.00000033,-0
 .00000261,0.00000014,-0.00000138,-0.00000616,0.00000057,0.00000155,0.0
 0000363,0.00000077,0.00000052,-0.00067340,0.00114255,0.00038347,-0.000
 16407,-0.00001852,-0.00004102,-0.00016363,0.00002893,0.00014971,0.0001
 1883,0.00010232,-0.00007441,0.00002492,-0.00007627,-0.00009378,0.00001
 534,-0.00008269,-0.00006195,0.00009718,-0.00016560,-0.00004348,-0.0000
 4066,-0.00000941,-0.00008430,-0.00036991,-0.00123795,0.00023617,-0.000
 07778,-0.00023154,-0.00058593,-0.00044515,-0.00130981,-0.00079361,-0.0
 0003760,0.00029753,-0.00017850,0.00009941,-0.00002325,-0.00003468,0.00
 098743,-0.00007902,0.00022018,-0.00000608,0.00028710,0.00021919,0.0000
 0534,0.00018217,0.00008018,0.00000084,0.00003089,0.00008355,0.00003138
 ,0.00001275,0.00010175,-0.00002718,-0.00004555,-0.00009065,0.00001915,
 -0.00003552,-0.00003800,-0.00002884,0.00002202,-0.00013153,0.00001045,
 -0.00001176,-0.00003237,-0.01815781,-0.00778145,0.02031288,-0.04725195
 ,-0.06588633,0.04940376,-0.00030572,0.00093929,-0.00137197,0.00249340,
 -0.00368156,0.00186904,0.01705686,0.00811684,-0.01590146,0.04925092,0.
 07164498,-0.00012259,-0.00001454,0.00012501,0.00015115,0.00008196,-0.0
 0005229,0.00002098,0.00000865,-0.00046794,0.,0.,0.,0.,0.,0.,0.,0.,0.,-
 0.00004367,0.00021132,0.00032440,0.,0.,0.,0.,0.,0.,0.,0.,0.,0.,0.,0.,0
 .,0.,0.,0.,0.,0.,0.,0.,0.,0.,0.,0.,0.,0.,0.,0.,0.,0.,0.,0.,0.,0.,0.,0.
 ,0.,0.,0.,0.,0.,0.,0.,0.,0.,0.,0.,0.,0.,0.,0.,0.,0.,0.,0.,0.,0.,0.,0.,
 0.,0.,0.,0.,0.,0.,0.,0.,0.,0.,0.,0.,0.,0.,0.,0.,0.,0.,0.,0.,0.,0.,0.,0
 .,0.,0.,0.,0.,0.,0.,0.,0.,0.,0.,-0.00018139,-0.00013172,0.00010170,0.0
 0014708,-0.00002315,0.00005586,-0.00000363,-0.00000260,-0.00000543,-0.
 00000191,0.00000097,-0.00000145,0.00000298,-0.00000012,-0.00000330,0.0
 0000519,-0.00000558,0.00001552,-0.00002042,0.00001575,-0.00001778,0.00
 001054,-0.00001264,0.00000679,0.00003056,-0.00000341,0.00001074,0.0000
 5604,-0.00000625,-0.00000211,-0.00012773,0.00002851,-0.00003218,-0.000
 00071,0.00000120,0.00000044,-0.00000009,-0.00000056,0.00000094,-0.0000
 0082,0.00000027,0.00000112,-0.00000011,-0.00000009,-0.00000250,-0.0000
 0081,-0.00000022,-0.00000095,-0.00000178,0.00000054,-0.00000301,-0.000
 00368,-0.00000366,0.00000401,0.00000573,-0.00000337,0.00000162,0.00001
 903,0.00001296,-0.00003460,-0.00000947,-0.00000412,0.00000326,-0.00035
 767,-0.00006855,0.00029896,-0.00029951,-0.00001827,-0.00005469,-0.0002
 1202,-0.00004713,0.00008071,-0.00005486,-0.00009539,0.00004614,0.00007
 514,0.00005719,0.00006164,0.00001874,-0.00012275,-0.00001508,0.0001654
 2,0.00001819,-0.00009864,0.00002705,-0.00000129,0.00002679,0.00017819,
 -0.00035646,-0.00045000,0.00044839,-0.00031323,0.00038155,0.00012414,-
 0.00094695,-0.00000450,-0.00001558,-0.00012613,0.00026478,-0.00003302,
 -0.00004716,-0.00013656,-0.00025978,-0.00022527,0.00004388,-0.00001649
 ,-0.00020862,-0.00017939,0.00028934,-0.00015915,0.00005280,-0.00009498
 ,0.00001029,-0.00008564,0.00004264,0.00005038,-0.00000554,-0.00006245,
 0.00010034,0.00004429,-0.00001003,0.00007203,0.00000634,0.00005725,-0.
 00001785,0.00011242,-0.00000219,0.00000439,0.00001118,0.01036231,0.002
 81639,-0.01350715,0.12170979,0.05052729,-0.17595302,0.00058185,-0.0001
 9841,0.00055119,-0.00172162,0.00325089,0.00006479,0.01399734,0.0066478
 2,-0.01397007,-0.13557297,-0.05590594,0.19139076,-0.00006188,-0.000003
 43,-0.00004918,0.00012432,0.00006688,0.00004644,0.00015909,0.00004623,
 -0.00011809,0.,0.,0.,0.,0.,0.,0.,0.,0.,-0.00016950,0.00002873,0.000009
 92,0.,0.,0.,0.,0.,0.,0.,0.,0.,0.,0.,0.,0.,0.,0.,0.,0.,0.,0.,0.,0.,0.,0
 .,0.,0.,0.,0.,0.,0.,0.,0.,0.,0.,0.,0.,0.,0.,0.,0.,0.,0.,0.,0.,0.,0.,0.
 ,0.,0.,0.,0.,0.,0.,0.,0.,0.,0.,0.,0.,0.,0.,0.,0.,0.,0.,0.,0.,0.,0.,0.,
 0.,0.,0.,0.,0.,0.,0.,0.,0.,0.,0.,0.,0.,0.,0.,0.,0.,0.,0.,0.,0.,0.,0.,0
 .,-0.00016926,-0.00011408,0.00000217,-0.00000779,-0.00001156,0.0000200
 8,-0.00001019,-0.00000736,-0.00000596,-0.00000255,0.00000167,-0.000001
 57,0.00000040,-0.00000152,-0.00000353,0.00000247,-0.00001596,0.0000263
 1,-0.00001087,0.00002741,-0.00002837,0.00001169,-0.00001914,0.00001490
 ,-0.00000205,-0.00001901,0.00000214,-0.00001315,0.00000263,0.00001562,
 0.00001867,0.00001808,-0.00003126,-0.00000090,0.00000120,0.00000063,0.
 00000126,0.00000007,0.00000012,0.00000127,-0.00000003,0.00000196,-0.00
 000091,0.00000058,-0.00000314,0.00000243,0.00000278,-0.00000299,-0.000
 00225,0.00000084,-0.00000052,0.00000175,0.00000797,-0.00000562,-0.0000
 0167,-0.00000107,0.00000163,-0.00000892,-0.00001558,0.00004318,0.00000
 275,0.00000131,-0.00001006,0.00040988,-0.00023453,-0.00031292,-0.00022
 607,0.00049756,0.00012177,-0.00190742,-0.00130682,0.00027879,-0.000002
 07,-0.00003416,0.00001821,0.00009908,-0.00002124,0.00005342,0.00005700
 ,-0.00065088,-0.00008053,-0.00018952,-0.00242231,-0.00036898,0.0000444
 5,0.00033619,0.00016927,-0.00049940,0.00017010,-0.00073647,-0.00016784
 ,-0.00021179,-0.00002332,-0.00009814,0.00029371,0.00059618,0.00016798,
 -0.00009110,0.00017643,-0.00001773,0.00001186,0.00003572,0.00028939,0.
 00000774,0.00000445,0.00014906,0.00015429,0.00007368,-0.00004725,0.000
 10602,0.00008044,0.00003539,-0.00005398,0.00002123,0.00005277,-0.00008
 947,-0.00002596,-0.00001019,0.00011466,0.00000600,-0.00000351,0.000002
 44,0.00002201,-0.00001564,-0.00004135,0.00006519,0.00001357,0.00003720
 ,-0.00000421,-0.00791996,-0.00053002,-0.00345087,-0.26607115,-0.029425
 50,-0.10152495,0.00157057,0.00171769,-0.00061572,0.00053125,0.00041074
 ,0.00028009,0.00279909,-0.00012326,0.00160644,-0.01765158,-0.00286399,
 -0.00961021,0.28894046,-0.00002932,0.00011705,-0.00004752,-0.00000580,
 -0.00009388,-0.00008934,-0.00005575,-0.00002359,0.00007289,0.,0.,0.,0.
 ,0.,0.,0.,0.,0.,-0.00013298,-0.00004838,-0.00008741,0.,0.,0.,0.,0.,0.,
 0.,0.,0.,0.,0.,0.,0.,0.,0.,0.,0.,0.,0.,0.,0.,0.,0.,0.,0.,0.,0.,0.,0.,0
 .,0.,0.,0.,0.,0.,0.,0.,0.,0.,0.,0.,0.,0.,0.,0.,0.,0.,0.,0.,0.,0.,0.,0.
 ,0.,0.,0.,0.,0.,0.,0.,0.,0.,0.,0.,0.,0.,0.,0.,0.,0.,0.,0.,0.,0.,0.,0.,
 0.,0.,0.,0.,0.,0.,0.,0.,0.,0.,0.,0.,0.,0.,0.,0.,0.,0.00008756,0.000077
 17,0.00001410,-0.00000152,-0.00000191,-0.00002361,0.00000680,0.0000015
 5,0.00000924,0.00000043,-0.00000081,-0.00000061,-0.00000039,0.00000035
 ,-0.00000004,0.00000032,0.00000343,-0.00000308,0.00000214,-0.00000621,
 0.00000442,-0.00000292,0.00000247,-0.00000519,-0.00000161,0.00001171,0
 .00000349,0.00000411,-0.00000213,-0.00000672,0.00000220,-0.00000615,0.
 00001032,0.00000023,-0.00000018,0.00000029,-0.00000018,0.00000005,0.00
 000052,-0.00000013,0.00000013,0.,0.00000003,-0.00000056,0.00000029,-0.
 00000049,-0.00000039,0.00000080,0.00000016,-0.00000085,-0.00000037,-0.
 00000054,-0.00000154,0.00000202,0.00000056,0.00000016,-0.00000137,-0.0
 0000002,0.00000522,-0.00001437,0.00000091,-0.00000207,0.00000407,-0.00
 026772,0.00184960,-0.00076680,0.00047923,-0.00018529,0.00030844,-0.000
 41471,-0.00140998,-0.00020129,-0.00000905,0.00000598,0.00001522,-0.000
 14169,0.00006152,-0.00003972,-0.00011169,0.00018793,-0.00002580,-0.001
 71098,-0.00131522,0.00030553,-0.00010477,-0.00000800,-0.00006457,0.000
 12182,-0.00012391,-0.00016432,0.00002267,0.00002280,-0.00005347,0.0006
 1533,-0.00051158,-0.00043299,-0.00005299,0.00005621,-0.00009316,-0.000
 00975,-0.00001305,-0.00001417,0.00001002,-0.00009356,0.00006956,-0.000
 02647,0.00001131,0.00001272,0.00015160,0.00000659,0.00023657,-0.000032
 50,0.00007246,-0.00000053,-0.00011024,0.00006648,0.00001720,-0.0000772
 5,-0.00008995,-0.00009338,-0.00000202,-0.00002032,-0.00003182,0.000034
 40,0.00004550,-0.00009013,-0.00000581,-0.00005394,0.00000914,0.0276869
 8,0.00431477,0.01225963,-0.03101660,-0.05005426,-0.01247338,0.00003346
 ,-0.00453210,0.00291533,-0.00075040,0.00069067,-0.00088574,-0.02280672
 ,-0.00244120,-0.00926799,-0.00620370,-0.00213470,-0.00446883,0.0341447
 4,0.05548525,-0.00006523,0.00023235,-0.00035507,0.00022941,-0.00007709
 ,0.00006360,0.00035713,0.00000945,-0.00006468,0.,0.,0.,0.,0.,0.,0.,0.,
 0.,-0.00050256,0.00001118,-0.00031262,0.,0.,0.,0.,0.,0.,0.,0.,0.,0.,0.
 ,0.,0.,0.,0.,0.,0.,0.,0.,0.,0.,0.,0.,0.,0.,0.,0.,0.,0.,0.,0.,0.,0.,0.,
 0.,0.,0.,0.,0.,0.,0.,0.,0.,0.,0.,0.,0.,0.,0.,0.,0.,0.,0.,0.,0.,0.,0.,0
 .,0.,0.,0.,0.,0.,0.,0.,0.,0.,0.,0.,0.,0.,0.,0.,0.,0.,0.,0.,0.,0.,0.,0.
 ,0.,0.,0.,0.,0.,0.,0.,0.,0.,0.,0.,0.,-0.00025746,-0.00009658,-0.000056
 05,-0.00005036,-0.00000701,0.00000298,-0.00000602,-0.00001431,0.000012
 88,-0.00000194,0.00000011,-0.00000195,-0.00000062,-0.00000050,-0.00000
 326,0.00000027,-0.00001204,0.00002069,-0.00000101,0.00001492,-0.000023
 16,0.00000130,-0.00001417,0.00001205,-0.00001206,0.00000176,0.00001356
 ,-0.00001823,0.00000471,0.00001946,0.00004939,-0.00000475,-0.00002300,
 -0.00000022,0.00000071,0.00000093,0.00000109,0.00000040,0.00000048,0.0
 0000160,0.00000011,0.00000182,-0.00000092,-0.00000028,-0.00000280,0.00
 000250,0.00000291,-0.00000211,-0.00000275,0.00000047,-0.00000342,0.000
 00346,0.00000862,-0.00000471,-0.00000173,-0.00000712,0.00000235,-0.000
 00383,-0.00001058,0.00003492,0.00000426,0.00000033,-0.00000813,0.00069
 703,0.00022502,0.00070690,-0.00055104,0.00027074,0.00002611,-0.0009069
 4,0.00006625,0.00053868,-0.00005865,0.00003655,-0.00002902,0.00023118,
 0.00004075,0.00001614,0.00008393,-0.00036315,-0.00011969,0.00056638,-0
 .00022400,0.00037552,0.00002900,-0.00022344,-0.00013558,0.00050782,0.0
 0035218,-0.00004916,0.00038818,-0.00016217,0.00014800,0.00027116,-0.00
 047585,-0.00000282,-0.00011248,0.00004416,0.00009851,-0.00000695,0.000
 03024,0.00003354,-0.00019737,0.00002873,-0.00013855,0.00001105,-0.0001
 3501,-0.00011574,0.00017164,-0.00013773,0.00004798,-0.00005855,-0.0000
 2226,-0.00002317,0.00008759,-0.00005360,-0.00004303,-0.00000022,0.0000
 9970,0.00001236,0.00000929,0.00002967,-0.00000771,-0.00002796,-0.00002
 209,0.00007865,0.00001537,0.00004953,0.00000081,-0.01503617,-0.0053956
 4,-0.00777422,-0.10070418,-0.01045734,-0.09599856,0.00064736,0.0034852
 7,-0.00048604,-0.00007981,-0.00042819,0.00026890,-0.01962908,-0.001827
 27,-0.00889275,0.02072481,0.00244265,0.01129209,0.11311707,0.01272659,
 0.09985425,0.00043122,0.00002029,-0.00046224,-0.00059690,-0.00019572,0
 .00023491,-0.00093021,-0.00018659,0.00089569,0.,0.,0.,0.,0.,0.,0.,0.,0
 .,0.00057571,-0.00043606,-0.00076761,0.,0.,0.,0.,0.,0.,0.,0.,0.,0.,0.,
 0.,0.,0.,0.,0.,0.,0.,0.,0.,0.,0.,0.,0.,0.,0.,0.,0.,0.,0.,0.,0.,0.,0.,0
 .,0.,0.,0.,0.,0.,0.,0.,0.,0.,0.,0.,0.,0.,0.,0.,0.,0.,0.,0.,0.,0.,0.,0.
 ,0.,0.,0.,0.,0.,0.,0.,0.,0.,0.,0.,0.,0.,0.,0.,0.,0.,0.,0.,0.,0.,0.,0.,
 0.,0.,0.,0.,0.,0.,0.,0.,0.,0.,0.,0.,0.00061957,0.00042892,-0.00005093,
 -0.00011564,0.00022208,-0.00067401,0.00005190,0.00000283,-0.00003558,0
 .00002654,-0.00000815,-0.00000548,-0.00006659,-0.00001767,0.00002844,-
 0.00003473,-0.00000209,-0.00005891,0.00024703,-0.00011240,0.00008118,-
 0.00023532,0.00012002,-0.00006676,-0.00024719,0.00001241,0.00014116,0.
 00009474,-0.00022143,0.00060505,0.00124317,-0.00014056,0.00002266,0.00
 000273,-0.00001233,0.00000339,0.00001195,0.00001101,-0.00000673,0.0000
 2670,-0.00000463,0.00000726,-0.00000890,-0.00000102,0.00001278,0.00002
 573,0.00001704,-0.00000393,0.00000931,-0.00001874,0.00001820,0.0000497
 3,0.00000909,-0.00000966,-0.00007512,0.00005107,-0.00004919,-0.0014148
 2,-0.00008520,0.00029683,-0.00010991,-0.00000817,0.00034058,-0.0011297
 8,-0.00038250,-0.00034904,0.00064312,-0.00005217,-0.00042899,-0.000105
 14,-0.00003694,0.00015563,0.00009810,0.00007298,-0.00007689,-0.0001391
 2,-0.00027898,-0.00004729,-0.00007709,-0.00004069,-0.00004425,0.000137
 81,0.00003877,-0.00002397,0.00001763,0.00003082,-0.00005176,-0.0003636
 6,-0.00034246,0.00091824,0.00002790,0.00034990,-0.00033266,0.00010928,
 0.00009138,-0.00002098,0.00008564,-0.00006204,-0.00016283,0.00001532,-
 0.00008640,-0.00018038,-0.00047299,-0.00009184,0.00020530,-0.00008691,
 -0.00027130,-0.00005184,-0.00083244,-0.00141462,-0.00155980,-0.0004169
 9,0.00016785,-0.00004675,-0.00150998,-0.00037113,0.00025627,-0.0005248
 8,-0.00050884,-0.00019440,0.00003211,-0.00006670,0.00008998,0.00028953
 ,0.00007494,-0.00037341,-0.00006736,-0.00029946,-0.00013712,-0.0043552
 9,0.00035306,-0.00212989,-0.00055992,-0.00109861,0.00011552,-0.0017715
 5,0.00006584,-0.00001966,-0.00014637,-0.00016601,-0.00028536,0.0001390
 4,-0.00004817,0.00000978,0.00018010,0.00017240,-0.00014467,-0.00038273
 ,0.00050897,-0.00050875,0.01379357,0.00020102,-0.00050450,-0.00016395,
 -0.00025324,0.00042050,0.00026703,-0.00030745,0.00121066,0.00026592,0.
 ,0.,0.,0.,0.,0.,0.,0.,0.,-0.00091075,-0.00149863,-0.00005212,0.,0.,0.,
 0.,0.,0.,0.,0.,0.,0.,0.,0.,0.,0.,0.,0.,0.,0.,0.,0.,0.,0.,0.,0.,0.,0.,0
 .,0.,0.,0.,0.,0.,0.,0.,0.,0.,0.,0.,0.,0.,0.,0.,0.,0.,0.,0.,0.,0.,0.,0.
 ,0.,0.,0.,0.,0.,0.,0.,0.,0.,0.,0.,0.,0.,0.,0.,0.,0.,0.,0.,0.,0.,0.,0.,
 0.,0.,0.,0.,0.,0.,0.,0.,0.,0.,0.,0.,0.,0.,0.,0.,0.,0.,0.,0.,-0.0000758
 9,-0.00026990,-0.00018014,0.00042269,-0.00048288,0.00001280,0.00012140
 ,-0.00003359,-0.00009150,0.00002422,0.00000517,0.00004139,0.00000167,0
 .00000350,0.00005758,-0.00005672,0.00012941,-0.00030154,0.00006889,-0.
 00012708,0.00031257,-0.00010238,0.00014203,-0.00013670,0.00027050,0.00
 001443,-0.00041152,0.00045810,0.00026136,0.00075895,-0.00105165,0.0002
 4412,0.00048177,0.00000285,-0.00001223,-0.00001790,-0.00000976,-0.0000
 0289,-0.00001634,-0.00001625,-0.00000759,-0.00003721,0.00000894,0.0000
 1404,0.00005559,-0.00001724,-0.00002522,0.00002991,0.00003241,-0.00000
 186,0.00008573,-0.00001732,-0.00008345,0.00004411,0.00012490,0.0002354
 3,-0.00004193,-0.00005373,-0.00131347,-0.00021042,-0.00010827,-0.00018
 957,0.00073907,-0.00053969,-0.00009635,-0.00001057,-0.00008305,0.00059
 442,-0.00025836,-0.00011148,-0.00011994,0.00005872,0.00014029,-0.00010
 588,-0.00004403,0.00012231,0.00014284,0.00010468,-0.00008513,0.0000338
 8,-0.00004447,-0.00006758,0.00006791,-0.00001946,-0.00000926,0.0000228
 3,-0.00004075,-0.00025750,0.00015576,0.00049691,0.00012679,-0.00019516
 ,-0.00029347,-0.00007956,0.00001539,-0.00018709,0.00008573,0.00006663,
 0.00005150,-0.00011977,0.00006173,-0.00016773,-0.00007250,-0.00047801,
 -0.00015111,-0.00008272,0.00026465,0.00036431,-0.00075756,-0.00250719,
 -0.00124282,-0.00042596,-0.00007808,-0.00050609,0.00020847,-0.00047379
 ,0.00118453,-0.00075827,-0.00036628,-0.00027270,0.00012443,0.00067491,
 -0.00016386,0.00052277,-0.00031623,-0.00012833,-0.00036804,-0.00030219
 ,-0.00013314,-0.00008843,0.00008973,-0.00060272,-0.00032480,0.00000873
 ,0.00005306,-0.00045602,-0.00140702,-0.00003818,0.00012031,0.00004796,
 -0.00001784,-0.00024644,0.00016760,0.00002516,-0.00009276,-0.00006108,
 -0.00027004,0.00005523,0.00016458,-0.00008867,0.00252321,0.00672811,-0
 .00021749,-0.00005982,-0.00058293,0.00040364,0.00041513,0.00056716,0.0
 0145824,0.00048781,0.00106071,0.,0.,0.,0.,0.,0.,0.,0.,0.,-0.00116533,-
 0.00025782,-0.00063682,0.,0.,0.,0.,0.,0.,0.,0.,0.,0.,0.,0.,0.,0.,0.,0.
 ,0.,0.,0.,0.,0.,0.,0.,0.,0.,0.,0.,0.,0.,0.,0.,0.,0.,0.,0.,0.,0.,0.,0.,
 0.,0.,0.,0.,0.,0.,0.,0.,0.,0.,0.,0.,0.,0.,0.,0.,0.,0.,0.,0.,0.,0.,0.,0
 .,0.,0.,0.,0.,0.,0.,0.,0.,0.,0.,0.,0.,0.,0.,0.,0.,0.,0.,0.,0.,0.,0.,0.
 ,0.,0.,0.,0.,0.,0.,0.,-0.00076515,-0.00065902,-0.00047622,-0.00114617,
 0.00005382,-0.00045762,-0.00003366,-0.00007686,-0.00009628,-0.00006114
 ,0.00005437,-0.00001086,0.00004486,-0.00002835,-0.00006974,0.00006032,
 -0.00034350,0.00054866,-0.00031439,0.00067127,-0.00057040,0.00071507,-
 0.00032033,0.00047459,-0.00041871,-0.00092112,-0.00078757,-0.00116855,
 0.00148577,-0.00128186,0.00216340,0.00043772,-0.00048377,-0.00002084,0
 .00003294,0.00000096,0.00001621,-0.00000300,-0.00000484,0.00001143,-0.
 00000845,0.00002699,-0.00001450,0.00001918,-0.00005896,0.00003797,0.00
 005044,-0.00006733,-0.00005271,0.00001901,0.00007162,0.00002197,0.0003
 0144,-0.00027297,-0.00000459,0.00018697,0.00000782,0.00011595,-0.00045
 297,-0.00079540,0.00019177,0.00013374,-0.00079950,-0.00077610,-0.00041
 409,0.00044373,0.00052755,0.00034970,-0.00022020,-0.00018757,-0.000161
 91,0.00007714,-0.00003134,-0.00000299,-0.00010492,-0.00005330,-0.00007
 290,-0.00004363,-0.00010662,-0.00003411,-0.00004240,0.00008315,0.00004
 905,-0.00004911,0.00005328,0.00003257,0.00005754,0.00052767,-0.0000376
 1,-0.00039823,-0.00058801,0.00045455,-0.00065313,-0.00012944,0.0000247
 0,0.00005499,-0.00023682,-0.00018083,0.00007343,-0.00030015,-0.0002373
 1,-0.00044997,0.00057269,-0.00069305,0.00053411,0.00001039,0.00031942,
 0.00036158,-0.00071600,-0.00105270,-0.00139140,0.00008116,0.00004219,-
 0.00041099,0.00025565,0.00051099,-0.00029080,-0.00039060,-0.00029085,0
 .00007438,0.00013984,-0.00033694,-0.00011520,-0.00045927,0.00001357,-0
 .00005845,-0.00007328,0.00002383,0.00049406,-0.00246477,-0.00039182,0.
 00022716,0.00012151,-0.00030294,0.00002612,0.00016081,0.00021396,-0.00
 158687,-0.00073392,-0.00021906,-0.00060047,0.00006334,0.00006981,-0.00
 006499,0.00019476,-0.00008360,0.00022595,-0.00020090,0.00010781,-0.000
 16410,0.00282819,0.00201470,0.00898056\\0.,0.,0.,0.,0.,0.,0.,0.,0.,0.,
 0.,0.,0.,0.,0.,0.,0.,0.,-0.00000001,0.,0.,0.,0.,0.,0.,0.,0.,0.,0.,0.,0
 .,0.,0.,0.,0.,0.,0.,0.,0.,0.,0.,0.,0.,0.,0.,0.,0.,0.,0.,0.,0.,0.,0.,0.
 ,0.,0.,0.,0.,0.,0.,0.,0.,0.,0.,0.,0.,0.,0.,0.,0.,0.,0.,0.,0.,0.,0.,0.,
 0.,0.,0.,0.,0.,0.,0.,0.,0.,0.,0.,0.,0.,0.,0.,0.,0.,0.,0.,0.,0.,0.,0.,0
 .,0.,0.,0.,0.,0.,0.,0.,0.,0.,0.,0.,0.,0.,0.,0.,0.,0.,0.,0.,0.,0.,0.,0.
 ,0.,0.,0.,0.,0.,0.,0.,0.,0.,0.,0.,0.,0.,0.,0.,0.,0.,0.,0.,0.,0.,0.,0.,
 0.,0.,0.,0.,0.,0.,0.,0.,0.,0.,0.,0.,0.,0.,0.,0.,0.,0.,0.,0.,0.,0.,0.,0
 .,0.,0.,0.,0.,0.,0.,0.,0.,0.,0.,0.,0.,0.,0.,0.,0.,0.,0.,0.,0.,0.,0.,0.
 ,0.,0.,0.,0.,0.,0.,0.,0.,0.,0.,0.,0.,0.,0.,0.,0.,0.,0.,0.,0.,0.,0.,0.,
 0.,0.,0.,0.,0.,0.,0.,0.,0.,0.,0.,0.,0.,0.,0.,0.,0.,0.,0.,0.,0.,0.,0.,0
 .,0.,0.,0.,0.,0.,0.,0.,0.,0.,0.,0.,0.,0.,0.,0.,0.,0.,0.,0.,0.,0.,0.,0.
 ,0.00000001,0.,0.\\\@


 ERWIN WITH HIS PSI CAN DO
 CALCULATIONS QUITE A FEW.
 BUT ONE THING HAS NOT BEEN SEEN
 JUST WHAT DOES PSI REALLY MEAN.
 -- WALTER HUCKEL, TRANS. BY FELIX BLOCH
 Job cpu time:       5 days 10 hours  7 minutes 40.5 seconds.
 Elapsed time:       0 days  2 hours  5 minutes  2.2 seconds.
 File lengths (MBytes):  RWF=   6243 Int=      0 D2E=      0 Chk=     77 Scr=      2
 Normal termination of Gaussian 16 at Wed Oct 18 22:29:25 2023.
