 Entering Gaussian System, Link 0=g16
 Input=CO2_opt_freq_sin.com
 Output=CO2_opt_freq_sin.log
 Initial command:
 /opt/ohpc/pub/apps/gaussian/avx2/g16/l1.exe "/scratch/g16-tmp/Gau-586906.inp" -scrdir="/scratch/g16-tmp/"
 Entering Link 1 = /opt/ohpc/pub/apps/gaussian/avx2/g16/l1.exe PID=    586907.
  
 Copyright (c) 1988-2017, Gaussian, Inc.  All Rights Reserved.
  
 This is part of the Gaussian(R) 16 program.  It is based on
 the Gaussian(R) 09 system (copyright 2009, Gaussian, Inc.),
 the Gaussian(R) 03 system (copyright 2003, Gaussian, Inc.),
 the Gaussian(R) 98 system (copyright 1998, Gaussian, Inc.),
 the Gaussian(R) 94 system (copyright 1995, Gaussian, Inc.),
 the Gaussian 92(TM) system (copyright 1992, Gaussian, Inc.),
 the Gaussian 90(TM) system (copyright 1990, Gaussian, Inc.),
 the Gaussian 88(TM) system (copyright 1988, Gaussian, Inc.),
 the Gaussian 86(TM) system (copyright 1986, Carnegie Mellon
 University), and the Gaussian 82(TM) system (copyright 1983,
 Carnegie Mellon University). Gaussian is a federally registered
 trademark of Gaussian, Inc.
  
 This software contains proprietary and confidential information,
 including trade secrets, belonging to Gaussian, Inc.
  
 This software is provided under written license and may be
 used, copied, transmitted, or stored only in accord with that
 written license.
  
 The following legend is applicable only to US Government
 contracts under FAR:
  
                    RESTRICTED RIGHTS LEGEND
  
 Use, reproduction and disclosure by the US Government is
 subject to restrictions as set forth in subparagraphs (a)
 and (c) of the Commercial Computer Software - Restricted
 Rights clause in FAR 52.227-19.
  
 Gaussian, Inc.
 340 Quinnipiac St., Bldg. 40, Wallingford CT 06492
  
  
 ---------------------------------------------------------------
 Warning -- This program may not be used in any manner that
 competes with the business of Gaussian, Inc. or will provide
 assistance to any competitor of Gaussian, Inc.  The licensee
 of this program is prohibited from giving any competitor of
 Gaussian, Inc. access to this program.  By using this program,
 the user acknowledges that Gaussian, Inc. is engaged in the
 business of creating and licensing software in the field of
 computational chemistry and represents and warrants to the
 licensee that it is not a competitor of Gaussian, Inc. and that
 it will not use this program in any manner prohibited above.
 ---------------------------------------------------------------
  

 Cite this work as:
 Gaussian 16, Revision B.01,
 M. J. Frisch, G. W. Trucks, H. B. Schlegel, G. E. Scuseria, 
 M. A. Robb, J. R. Cheeseman, G. Scalmani, V. Barone, 
 G. A. Petersson, H. Nakatsuji, X. Li, M. Caricato, A. V. Marenich, 
 J. Bloino, B. G. Janesko, R. Gomperts, B. Mennucci, H. P. Hratchian, 
 J. V. Ortiz, A. F. Izmaylov, J. L. Sonnenberg, D. Williams-Young, 
 F. Ding, F. Lipparini, F. Egidi, J. Goings, B. Peng, A. Petrone, 
 T. Henderson, D. Ranasinghe, V. G. Zakrzewski, J. Gao, N. Rega, 
 G. Zheng, W. Liang, M. Hada, M. Ehara, K. Toyota, R. Fukuda, 
 J. Hasegawa, M. Ishida, T. Nakajima, Y. Honda, O. Kitao, H. Nakai, 
 T. Vreven, K. Throssell, J. A. Montgomery, Jr., J. E. Peralta, 
 F. Ogliaro, M. J. Bearpark, J. J. Heyd, E. N. Brothers, K. N. Kudin, 
 V. N. Staroverov, T. A. Keith, R. Kobayashi, J. Normand, 
 K. Raghavachari, A. P. Rendell, J. C. Burant, S. S. Iyengar, 
 J. Tomasi, M. Cossi, J. M. Millam, M. Klene, C. Adamo, R. Cammi, 
 J. W. Ochterski, R. L. Martin, K. Morokuma, O. Farkas, 
 J. B. Foresman, and D. J. Fox, Gaussian, Inc., Wallingford CT, 2016.
 
 ******************************************
 Gaussian 16:  ES64L-G16RevB.01 20-Dec-2017
                11-May-2023 
 ******************************************
 %mem=64GB
 %nprocshared=64
 Will use up to   64 processors via shared memory.
 %chk=CO2_opt_freq_sin.chk
 ----------------------------------------------------------------------
 # opt=(calcall,tight,cartesian) freq b3lyp/gen nosymm scf=(qc,maxcycle
 =1024) pseudo=read
 ----------------------------------------------------------------------
 1/7=10,10=4,18=10,26=3,38=1/1,3;
 2/12=2,15=1,17=6,18=5,29=2,40=1/2;
 3/5=7,11=2,16=1,17=8,25=1,30=1,71=2,74=-5,140=1/1,2,3;
 4//1;
 5/5=2,7=1024,8=3,38=5/8;
 8/6=4,10=90,11=11/1;
 11/6=1,8=1,9=11,15=111,16=1,31=1/1,2,10;
 10/6=1,31=1/2;
 6/7=2,8=2,9=2,10=2,18=1,28=1/1;
 7/7=1,10=1,25=1,30=1/1,2,3,16;
 1/7=10,10=4,18=10,26=3/3(3);
 2/15=1,29=1/2;
 7/7=1,8=1,9=1,25=1,30=1,44=-1/16;
 99/12=1/99;
 2/15=1,29=1/2;
 3/5=7,6=1,11=2,16=1,17=8,25=1,30=1,71=2,74=-5,82=7,140=1/1,2,3;
 4/5=5,16=3,69=1/1;
 5/5=2,7=1024,8=3,38=5/8;
 8/6=4,10=90,11=11/1;
 11/6=1,8=1,9=11,15=111,16=1,31=1/1,2,10;
 10/6=1,31=1/2;
 7/7=1,10=1,25=1,30=1/1,2,3,16;
 1/7=10,10=4,18=10,26=3/3(-8);
 2/15=1,29=1/2;
 6/7=2,8=2,9=2,10=2,18=1,19=2,28=1/1;
 7/7=1,8=1,9=1,25=1,30=1,44=-1/16;
 99/12=1/99;
 ----------------
 CO2_opt_freq_sin
 ----------------
 Symbolic Z-matrix:
 Charge =  0 Multiplicity = 1
 C                    -1.2604    1.5874    0. 
 O                    -2.5188    1.5874    0. 
 O                    -0.002     1.5874    0. 
 

 GradGradGradGradGradGradGradGradGradGradGradGradGradGradGradGradGradGrad
 Berny optimization.
 Initialization pass.
 No Z-matrix variables, so optimization will use Cartesian coordinates.
 Trust Radius=3.00D-01 FncErr=1.00D-07 GrdErr=1.00D-06 EigMax=2.50D+02 EigMin=1.00D-04
 Number of steps in this run=     20 maximum allowed number of steps=    100.
 GradGradGradGradGradGradGradGradGradGradGradGradGradGradGradGradGradGrad

 ---------------------------------------------------------------------------------------------------
                            Z-MATRIX (ANGSTROMS AND DEGREES)
   CD    Cent   Atom    N1       Length/X        N2       Alpha/Y        N3        Beta/Z          J
 ---------------------------------------------------------------------------------------------------
      1      1  C        0  -1.260404          1.587396          0.000000
      2      2  O        0  -2.518804          1.587396          0.000000
      3      3  O        0  -0.002004          1.587396          0.000000
 ---------------------------------------------------------------------------------------------------
                         Z-Matrix orientation:                         
 ---------------------------------------------------------------------
 Center     Atomic      Atomic             Coordinates (Angstroms)
 Number     Number       Type             X           Y           Z
 ---------------------------------------------------------------------
      1          6           0       -1.260404    1.587396    0.000000
      2          8           0       -2.518804    1.587396    0.000000
      3          8           0       -0.002004    1.587396    0.000000
 ---------------------------------------------------------------------
                    Distance matrix (angstroms):
                    1          2          3
     1  C    0.000000
     2  O    1.258400   0.000000
     3  O    1.258400   2.516800   0.000000
 Symmetry turned off by external request.
 Stoichiometry    CO2
 Framework group  D*H[O(C),C*(O.O)]
 Deg. of freedom     1
 Full point group                 D*H     NOp   8
 Rotational constants (GHZ):           0.0000000           9.9762623           9.9762623
 General basis read from cards:  (5D, 7F)
 ======================================================================================================
                                       Pseudopotential Parameters
 ======================================================================================================
  Center     Atomic      Valence      Angular      Power
  Number     Number     Electrons     Momentum     of R      Exponent        Coefficient   SO-Coeffient
 ======================================================================================================
    1          6
                                   No pseudopotential on this center.
    2          8
                                   No pseudopotential on this center.
    3          8
                                   No pseudopotential on this center.
 ======================================================================================================
    54 basis functions,    96 primitive gaussians,    57 cartesian basis functions
    11 alpha electrons       11 beta electrons
       nuclear repulsion energy        53.8260354401 Hartrees.
 NAtoms=    3 NActive=    3 NUniq=    3 SFac= 1.00D+00 NAtFMM=   60 NAOKFM=F Big=F
 Integral buffers will be    131072 words long.
 Raffenetti 2 integral format.
 Two-electron integral symmetry is turned off.
 One-electron integrals computed using PRISM.
   1 Symmetry operations used in ECPInt.
 ECPInt:  NShTT=     120 NPrTT=     720 LenC2=     120 LenP2D=     607.
 LDataN:  DoStor=T MaxTD1= 4 Len=   56
 NBasis=    54 RedAO= T EigKep=  2.22D-03  NBF=    54
 NBsUse=    54 1.00D-06 EigRej= -1.00D+00 NBFU=    54
 ExpMin= 4.38D-02 ExpMax= 5.48D+03 ExpMxC= 8.25D+02 IAcc=3 IRadAn=         5 AccDes= 0.00D+00
 Harris functional with IExCor=  402 and IRadAn=       5 diagonalized for initial guess.
 HarFok:  IExCor=  402 AccDes= 0.00D+00 IRadAn=         5 IDoV= 1 UseB2=F ITyADJ=14
 ICtDFT=  3500011 ScaDFX=  1.000000  1.000000  1.000000  1.000000
 FoFCou: FMM=F IPFlag=           0 FMFlag=      100000 FMFlg1=           0
         NFxFlg=           0 DoJE=T BraDBF=F KetDBF=T FulRan=T
         wScrn=  0.000000 ICntrl=       500 IOpCl=  0 I1Cent=   200000004 NGrid=           0
         NMat0=    1 NMatS0=      1 NMatT0=    0 NMatD0=    1 NMtDS0=    0 NMtDT0=    0
 Symmetry not used in FoFCou.
 Keep R1 ints in memory in canonical form, NReq=57477609.
 Gradient too large for Newton-Raphson -- use scaled steepest descent instead.
     Minimum is close to point  2 DX= -1.61D-02 DF= -2.65D-04 DXR=  5.66D-02 DFR=  3.21D-03 which will be used.
 Gradient too large for Newton-Raphson -- use scaled steepest descent instead.
 Gradient too large for Newton-Raphson -- use scaled steepest descent instead.
     Accept linear search using points  2 and  3.
 Gradient too large for Newton-Raphson -- use scaled steepest descent instead.
     Accept linear search using points  1 and  2.
 Gradient too large for Newton-Raphson -- use scaled steepest descent instead.
 LinEq1:  Iter=  0 NonCon=     1 RMS=4.42D-05 Max=5.90D-04 NDo=     1
 AX will form     1 AO Fock derivatives at one time.
 LinEq1:  Iter=  1 NonCon=     1 RMS=1.77D-05 Max=1.29D-04 NDo=     1
 LinEq1:  Iter=  2 NonCon=     1 RMS=3.66D-06 Max=3.15D-05 NDo=     1
 LinEq1:  Iter=  3 NonCon=     1 RMS=9.08D-07 Max=5.71D-06 NDo=     1
 LinEq1:  Iter=  4 NonCon=     1 RMS=2.00D-07 Max=1.62D-06 NDo=     1
 LinEq1:  Iter=  5 NonCon=     1 RMS=1.03D-08 Max=7.72D-08 NDo=     1
 LinEq1:  Iter=  6 NonCon=     0 RMS=4.06D-10 Max=2.55D-09 NDo=     1
 Linear equations converged to 3.076D-09 3.076D-08 after     6 iterations.
     Accept linear search using points  2 and  3.
     Minimum is close to point  2 DX=  6.15D-05 DF=  0.00D+00 DXR=  6.15D-05 DFR=  0.00D+00 which will be used.
 SCF Done:  E(RB3LYP) =  -188.561656571     a.u. after    7 cycles
            Convg  =    0.9193D-07                    23 Fock formations.
              S**2 =  0.0000                  -V/T =  2.0106
 DoSCS=F DFT=T ScalE2(SS,OS)=  1.000000  1.000000
 Range of M.O.s used for correlation:     1    54
 NBasis=    54 NAE=    11 NBE=    11 NFC=     0 NFV=     0
 NROrb=     54 NOA=    11 NOB=    11 NVA=    43 NVB=    43
   1 Symmetry operations used in ECPInt.
 ECPInt:  NShTT=     120 NPrTT=     720 LenC2=     120 LenP2D=     607.
 LDataN:  DoStor=T MaxTD1= 5 Len=  102
 Symmetrizing basis deriv contribution to polar:
 IMax=3 JMax=2 DiffMx= 0.00D+00
 G2DrvN: will do     4 centers at a time, making    1 passes.
 Calling FoFCou, ICntrl=  3107 FMM=F I1Cent=   0 AccDes= 0.00D+00.
 End of G2Drv F.D. properties file   721 does not exist.
 End of G2Drv F.D. properties file   722 does not exist.
 End of G2Drv F.D. properties file   788 does not exist.
          IDoAtm=111
          Differentiating once with respect to electric field.
                with respect to dipole field.
          Differentiating once with respect to nuclear coordinates.
 Keep R1 ints in memory in canonical form, NReq=57255456.
          There are    12 degrees of freedom in the 1st order CPHF.  IDoFFX=6 NUNeed=     3.
      9 vectors produced by pass  0 Test12= 3.94D-15 8.33D-09 XBig12= 4.28D+01 4.28D+00.
 AX will form     9 AO Fock derivatives at one time.
      9 vectors produced by pass  1 Test12= 3.94D-15 8.33D-09 XBig12= 3.04D+01 2.27D+00.
      9 vectors produced by pass  2 Test12= 3.94D-15 8.33D-09 XBig12= 1.82D-01 1.26D-01.
      9 vectors produced by pass  3 Test12= 3.94D-15 8.33D-09 XBig12= 7.99D-04 9.32D-03.
      9 vectors produced by pass  4 Test12= 3.94D-15 8.33D-09 XBig12= 2.26D-06 5.44D-04.
      7 vectors produced by pass  5 Test12= 3.94D-15 8.33D-09 XBig12= 2.70D-08 7.62D-05.
      6 vectors produced by pass  6 Test12= 3.94D-15 8.33D-09 XBig12= 1.15D-10 3.98D-06.
      1 vectors produced by pass  7 Test12= 3.94D-15 8.33D-09 XBig12= 8.23D-14 9.35D-08.
 InvSVY:  IOpt=1 It=  1 EMax= 4.44D-16
 Solved reduced A of dimension    59 with     9 vectors.
 Isotropic polarizability for W=    0.000000       16.90 Bohr**3.
 End of Minotr F.D. properties file   721 does not exist.
 End of Minotr F.D. properties file   722 does not exist.
 End of Minotr F.D. properties file   788 does not exist.

 **********************************************************************

            Population analysis using the SCF Density.

 **********************************************************************

 Alpha  occ. eigenvalues --  -19.26669 -19.26663 -10.42691  -1.13627  -1.09680
 Alpha  occ. eigenvalues --   -0.59222  -0.52792  -0.49896  -0.49896  -0.38237
 Alpha  occ. eigenvalues --   -0.38237
 Alpha virt. eigenvalues --   -0.04223  -0.04223  -0.03760   0.05175   0.05521
 Alpha virt. eigenvalues --    0.05521   0.09750   0.16504   0.18719   0.18719
 Alpha virt. eigenvalues --    0.23519   0.26011   0.26011   0.29302   0.29946
 Alpha virt. eigenvalues --    0.63638   0.63638   0.64179   0.77095   1.02349
 Alpha virt. eigenvalues --    1.07708   1.07708   1.14447   1.21809   1.21809
 Alpha virt. eigenvalues --    1.28890   1.36035   1.36035   1.41476   1.41476
 Alpha virt. eigenvalues --    1.54518   1.72014   1.72014   1.94189   1.94189
 Alpha virt. eigenvalues --    1.99559   1.99559   2.01807   2.50256   2.80183
 Alpha virt. eigenvalues --    2.80183   3.11013   3.15578
          Condensed to atoms (all electrons):
               1          2          3
     1  C    4.547566   0.378322   0.378322
     2  O    0.378322   8.064281  -0.094708
     3  O    0.378322  -0.094708   8.064281
 Mulliken charges:
               1
     1  C    0.695790
     2  O   -0.347895
     3  O   -0.347895
 Sum of Mulliken charges =  -0.00000
 Mulliken charges with hydrogens summed into heavy atoms:
               1
     1  C    0.695790
     2  O   -0.347895
     3  O   -0.347895
 APT charges:
               1
     1  C    1.042981
     2  O   -0.521490
     3  O   -0.521490
 Sum of APT charges =  -0.00000
 APT charges with hydrogens summed into heavy atoms:
               1
     1  C    1.042981
     2  O   -0.521490
     3  O   -0.521490
 Electronic spatial extent (au):  <R**2>=            450.9621
 Charge=             -0.0000 electrons
 Dipole moment (field-independent basis, Debye):
    X=              0.0000    Y=             -0.0000    Z=             -0.0000  Tot=              0.0000
 Quadrupole moment (field-independent basis, Debye-Ang):
   XX=            -20.0075   YY=            -15.3556   ZZ=            -15.3556
   XY=              0.0000   XZ=             -0.0000   YZ=              0.0000
 Traceless Quadrupole moment (field-independent basis, Debye-Ang):
   XX=             -3.1013   YY=              1.5506   ZZ=              1.5506
   XY=              0.0000   XZ=             -0.0000   YZ=              0.0000
 Octapole moment (field-independent basis, Debye-Ang**2):
  XXX=             75.6525  YYY=            -73.1260  ZZZ=             -0.0000  XYY=             19.3542
  XXY=            -31.7598  XXZ=             -0.0000  XZZ=             19.3542  YZZ=            -24.3753
  YYZ=              0.0000  XYZ=             -0.0000
 Hexadecapole moment (field-independent basis, Debye-Ang**3):
 XXXX=           -311.3354 YYYY=           -245.1171 ZZZZ=            -12.9571 XXXY=            120.0905
 XXXZ=              0.0000 YYYX=             92.1684 YYYZ=              0.0000 ZZZX=              0.0000
 ZZZY=             -0.0000 XXYY=            -97.1274 XXZZ=            -46.7120 YYZZ=            -43.0124
 XXYZ=              0.0000 YYXZ=             -0.0000 ZZXY=             30.7228
 N-N= 5.382603544005D+01 E-N=-5.502186827949D+02  KE= 1.865908618055D+02
  Exact polarizability:  30.512   0.000  10.097   0.000  -0.000  10.097
 Approx polarizability:  64.981   0.000  12.474   0.000   0.000  12.474
   1 Symmetry operations used in ECPInt.
 ECPInt:  NShTT=     120 NPrTT=     720 LenC2=     120 LenP2D=     607.
 LDataN:  DoStor=T MaxTD1= 6 Len=  172
 Calling FoFJK, ICntrl=    100127 FMM=F ISym2X=0 I1Cent= 0 IOpClX= 0 NMat=1 NMatS=1 NMatT=0.
 -------------------------------------------------------------------
 Center     Atomic                   Forces (Hartrees/Bohr)
 Number     Number              X              Y              Z
 -------------------------------------------------------------------
      1        6           0.000000000   -0.000000000    0.000000000
      2        8           0.138847434    0.000000000   -0.000000000
      3        8          -0.138847434    0.000000000    0.000000000
 -------------------------------------------------------------------
 Cartesian Forces:  Max     0.138847434 RMS     0.065453308

 GradGradGradGradGradGradGradGradGradGradGradGradGradGradGradGradGradGrad
 Berny optimization.
 Search for a local minimum.
 Step number   1 out of a maximum of   20
 All quantities printed in internal units (Hartrees-Bohrs-Radians)
 Second derivative matrix not updated -- analytic derivatives used.
 The second derivative matrix:
                          X1        Y1        Z1        X2        Y2
           X1           0.91204
           Y1           0.00000   0.21079
           Z1          -0.00000   0.00000   0.21079
           X2          -0.45602  -0.00000   0.00000   0.51816
           Y2          -0.00000  -0.10539  -0.00000   0.00000   0.08189
           Z2           0.00000  -0.00000  -0.10539  -0.00000   0.00000
           X3          -0.45602   0.00000  -0.00000  -0.06214  -0.00000
           Y3           0.00000  -0.10539  -0.00000   0.00000   0.02350
           Z3          -0.00000  -0.00000  -0.10539  -0.00000  -0.00000
                          Z2        X3        Y3        Z3
           Z2           0.08189
           X3           0.00000   0.51816
           Y3           0.00000  -0.00000   0.08189
           Z3           0.02350   0.00000   0.00000   0.08189
 ITU=  0
     Eigenvalues ---    0.31480   0.31480   0.58031   1.36211
 RFO step:  Lambda=-6.01981893D-02 EMin= 3.14801849D-01
 Linear search not attempted -- first point.
 Maximum step size (   0.300) exceeded in Quadratic search.
    -- Step size scaled by   0.979
 B after Tr=    -0.000000    0.023344   -0.373509
         Rot=    0.998053   -0.062378    0.000000    0.000000 Ang=  -7.15 deg.
 Variable       Old X    -DE/DX   Delta X   Delta X   Delta X     New X
                                 (Linear)    (Quad)   (Total)
    X1       -2.38182   0.00000   0.00000   0.00000   0.00000  -2.38182
    Y1        2.99974  -0.00000   0.00000  -0.00000  -0.00000   2.99974
    Z1        0.00000   0.00000   0.00000   0.00000  -0.00000  -0.00000
    X2       -4.75985   0.13885   0.00000   0.21213   0.21213  -4.54772
    Y2        2.99974   0.00000   0.00000   0.00000   0.00000   2.99974
    Z2        0.00000  -0.00000   0.00000  -0.00000   0.00000   0.00000
    X3       -0.00379  -0.13885   0.00000  -0.21213  -0.21213  -0.21592
    Y3        2.99974   0.00000   0.00000   0.00000   0.00000   2.99974
    Z3        0.00000   0.00000   0.00000  -0.00000   0.00000   0.00000
         Item               Value     Threshold  Converged?
 Maximum Force            0.138847     0.000015     NO 
 RMS     Force            0.065453     0.000010     NO 
 Maximum Displacement     0.212132     0.000060     NO 
 RMS     Displacement     0.100000     0.000040     NO 
 Predicted change in Energy=-3.279418D-02
 GradGradGradGradGradGradGradGradGradGradGradGradGradGradGradGradGradGrad

                          Input orientation:                          
 ---------------------------------------------------------------------
 Center     Atomic      Atomic             Coordinates (Angstroms)
 Number     Number       Type             X           Y           Z
 ---------------------------------------------------------------------
      1          6           0       -1.260404    1.587396   -0.000000
      2          8           0       -2.406549    1.587396    0.000000
      3          8           0       -0.114260    1.587396    0.000000
 ---------------------------------------------------------------------
                    Distance matrix (angstroms):
                    1          2          3
     1  C    0.000000
     2  O    1.146145   0.000000
     3  O    1.146145   2.292289   0.000000
 Symmetry turned off by external request.
 Stoichiometry    CO2
 Framework group  D*H[O(C),C*(O.O)]
 Deg. of freedom     1
 Full point group                 D*H     NOp   8
 Rotational constants (GHZ):           0.0000000          12.0261463          12.0261463
 Basis read from rwf:  (5D, 7F)
 Pseudo-potential data read from rwf file.
    54 basis functions,    96 primitive gaussians,    57 cartesian basis functions
    11 alpha electrons       11 beta electrons
       nuclear repulsion energy        59.0978531509 Hartrees.
 NAtoms=    3 NActive=    3 NUniq=    3 SFac= 1.00D+00 NAtFMM=   60 NAOKFM=F Big=F
 Integral buffers will be    131072 words long.
 Raffenetti 2 integral format.
 Two-electron integral symmetry is turned off.
 One-electron integrals computed using PRISM.
   1 Symmetry operations used in ECPInt.
 ECPInt:  NShTT=     120 NPrTT=     720 LenC2=     121 LenP2D=     620.
 LDataN:  DoStor=T MaxTD1= 4 Len=   56
 NBasis=    54 RedAO= T EigKep=  1.50D-03  NBF=    54
 NBsUse=    54 1.00D-06 EigRej= -1.00D+00 NBFU=    54
 Initial guess from the checkpoint file:  "CO2_opt_freq_sin.chk"
 B after Tr=    -0.000000    0.001467   -0.093811
         Rot=    0.999878   -0.015638    0.000000    0.000000 Ang=  -1.79 deg.
 ExpMin= 4.38D-02 ExpMax= 5.48D+03 ExpMxC= 8.25D+02 IAcc=3 IRadAn=         5 AccDes= 0.00D+00
 Harris functional with IExCor=  402 and IRadAn=       5 diagonalized for initial guess.
 HarFok:  IExCor=  402 AccDes= 0.00D+00 IRadAn=         5 IDoV= 1 UseB2=F ITyADJ=14
 ICtDFT=  3500011 ScaDFX=  1.000000  1.000000  1.000000  1.000000
 FoFCou: FMM=F IPFlag=           0 FMFlag=      100000 FMFlg1=           0
         NFxFlg=           0 DoJE=T BraDBF=F KetDBF=T FulRan=T
         wScrn=  0.000000 ICntrl=       500 IOpCl=  0 I1Cent=   200000004 NGrid=           0
         NMat0=    1 NMatS0=      1 NMatT0=    0 NMatD0=    1 NMtDS0=    0 NMtDT0=    0
 Symmetry not used in FoFCou.
 Keep R1 ints in memory in canonical form, NReq=57477609.
 Gradient too large for Newton-Raphson -- use scaled steepest descent instead.
 Gradient too large for Newton-Raphson -- use scaled steepest descent instead.
 Gradient too large for Newton-Raphson -- use scaled steepest descent instead.
     Minimum is close to point  2 DX=  9.87D-03 DF= -1.10D-07 DXR=  1.39D-02 DFR=  1.93D-04 which will be used.
 Gradient too large for Newton-Raphson -- use scaled steepest descent instead.
     Minimum is close to point  2 DX=  4.59D-02 DF= -9.25D-07 DXR=  6.15D-02 DFR=  3.79D-03 which will be used.
 Gradient too large for Newton-Raphson -- use scaled steepest descent instead.
 Gradient too large for Newton-Raphson -- use scaled steepest descent instead.
     Accept linear search using points  1 and  2.
 LinEq1:  Iter=  0 NonCon=     1 RMS=2.95D-04 Max=4.93D-03 NDo=     1
 AX will form     1 AO Fock derivatives at one time.
 LinEq1:  Iter=  1 NonCon=     1 RMS=1.68D-04 Max=1.99D-03 NDo=     1
 LinEq1:  Iter=  2 NonCon=     1 RMS=3.56D-05 Max=1.97D-04 NDo=     1
 LinEq1:  Iter=  3 NonCon=     1 RMS=1.32D-05 Max=1.01D-04 NDo=     1
 LinEq1:  Iter=  4 NonCon=     1 RMS=1.60D-06 Max=9.47D-06 NDo=     1
 LinEq1:  Iter=  5 NonCon=     1 RMS=1.20D-07 Max=1.16D-06 NDo=     1
 LinEq1:  Iter=  6 NonCon=     1 RMS=4.59D-09 Max=5.05D-08 NDo=     1
 LinEq1:  Iter=  7 NonCon=     0 RMS=1.75D-10 Max=1.37D-09 NDo=     1
 Linear equations converged to 3.076D-09 3.076D-08 after     7 iterations.
     Minimum is close to point  2 DX=  1.03D-03 DF= -7.43D-11 DXR=  1.03D-03 DFR=  1.05D-06 which will be used.
 LinEq1:  Iter=  0 NonCon=     1 RMS=6.60D-07 Max=6.85D-06 NDo=     1
 LinEq1:  Iter=  1 NonCon=     1 RMS=4.02D-07 Max=4.87D-06 NDo=     1
 LinEq1:  Iter=  2 NonCon=     1 RMS=8.97D-08 Max=1.10D-06 NDo=     1
 LinEq1:  Iter=  3 NonCon=     1 RMS=2.12D-08 Max=1.22D-07 NDo=     1
 LinEq1:  Iter=  4 NonCon=     1 RMS=1.87D-09 Max=2.38D-08 NDo=     1
 LinEq1:  Iter=  5 NonCon=     0 RMS=5.80D-11 Max=4.31D-10 NDo=     1
 Linear equations converged to 1.869D-10 1.869D-09 after     5 iterations.
 SCF Done:  E(RB3LYP) =  -188.585066224     a.u. after    9 cycles
            Convg  =    0.7210D-09                    32 Fock formations.
              S**2 =  0.0000                  -V/T =  2.0060
 DoSCS=F DFT=T ScalE2(SS,OS)=  1.000000  1.000000
 Range of M.O.s used for correlation:     1    54
 NBasis=    54 NAE=    11 NBE=    11 NFC=     0 NFV=     0
 NROrb=     54 NOA=    11 NOB=    11 NVA=    43 NVB=    43
   1 Symmetry operations used in ECPInt.
 ECPInt:  NShTT=     120 NPrTT=     720 LenC2=     121 LenP2D=     620.
 LDataN:  DoStor=T MaxTD1= 5 Len=  102
 Symmetrizing basis deriv contribution to polar:
 IMax=3 JMax=2 DiffMx= 0.00D+00
 G2DrvN: will do     4 centers at a time, making    1 passes.
 Calling FoFCou, ICntrl=  3107 FMM=F I1Cent=   0 AccDes= 0.00D+00.
 End of G2Drv F.D. properties file   721 does not exist.
 End of G2Drv F.D. properties file   722 does not exist.
 End of G2Drv F.D. properties file   788 does not exist.
          IDoAtm=111
          Differentiating once with respect to electric field.
                with respect to dipole field.
          Differentiating once with respect to nuclear coordinates.
 Keep R1 ints in memory in canonical form, NReq=57255456.
          There are    12 degrees of freedom in the 1st order CPHF.  IDoFFX=6 NUNeed=     3.
      9 vectors produced by pass  0 Test12= 3.94D-15 8.33D-09 XBig12= 2.50D+01 3.15D+00.
 AX will form     9 AO Fock derivatives at one time.
      9 vectors produced by pass  1 Test12= 3.94D-15 8.33D-09 XBig12= 1.54D+01 1.51D+00.
      9 vectors produced by pass  2 Test12= 3.94D-15 8.33D-09 XBig12= 7.31D-02 9.00D-02.
      9 vectors produced by pass  3 Test12= 3.94D-15 8.33D-09 XBig12= 2.44D-04 6.26D-03.
      9 vectors produced by pass  4 Test12= 3.94D-15 8.33D-09 XBig12= 5.60D-07 2.10D-04.
      7 vectors produced by pass  5 Test12= 3.94D-15 8.33D-09 XBig12= 5.26D-10 9.72D-06.
      4 vectors produced by pass  6 Test12= 3.94D-15 8.33D-09 XBig12= 3.51D-12 6.44D-07.
      1 vectors produced by pass  7 Test12= 3.94D-15 8.33D-09 XBig12= 2.12D-14 5.16D-08.
 InvSVY:  IOpt=1 It=  1 EMax= 4.44D-16
 Solved reduced A of dimension    57 with     9 vectors.
 Isotropic polarizability for W=    0.000000       14.53 Bohr**3.
 End of Minotr F.D. properties file   721 does not exist.
 End of Minotr F.D. properties file   722 does not exist.
 End of Minotr F.D. properties file   788 does not exist.
   1 Symmetry operations used in ECPInt.
 ECPInt:  NShTT=     120 NPrTT=     720 LenC2=     121 LenP2D=     620.
 LDataN:  DoStor=T MaxTD1= 6 Len=  172
 Calling FoFJK, ICntrl=    100127 FMM=F ISym2X=0 I1Cent= 0 IOpClX= 0 NMat=1 NMatS=1 NMatT=0.
 -------------------------------------------------------------------
 Center     Atomic                   Forces (Hartrees/Bohr)
 Number     Number              X              Y              Z
 -------------------------------------------------------------------
      1        6           0.000000000    0.000000000    0.000000000
      2        8          -0.054549935   -0.000000000   -0.000000000
      3        8           0.054549935   -0.000000000   -0.000000000
 -------------------------------------------------------------------
 Cartesian Forces:  Max     0.054549935 RMS     0.025715086

 GradGradGradGradGradGradGradGradGradGradGradGradGradGradGradGradGradGrad
 Berny optimization.
 Search for a local minimum.
 Step number   2 out of a maximum of   20
 All quantities printed in internal units (Hartrees-Bohrs-Radians)
 Second derivative matrix not updated -- analytic derivatives used.
 DE= -2.34D-02 DEPred=-3.28D-02 R= 7.14D-01
 TightC=F SS=  1.41D+00  RLast= 3.00D-01 DXNew= 5.0454D-01 9.0000D-01
 Trust test= 7.14D-01 RLast= 3.00D-01 DXMaxT set to 5.05D-01
 The second derivative matrix:
                          X1        Y1        Z1        X2        Y2
           X1           2.29025
           Y1           0.00000   0.10847
           Z1           0.00000   0.00000   0.10847
           X2          -1.14513   0.00000   0.00000   1.23375
           Y2          -0.00000  -0.05423  -0.00000  -0.00000   0.01452
           Z2          -0.00000   0.00000  -0.05423  -0.00000   0.00000
           X3          -1.14513  -0.00000  -0.00000  -0.08863   0.00000
           Y3           0.00000  -0.05423  -0.00000  -0.00000   0.03971
           Z3           0.00000  -0.00000  -0.05423  -0.00000  -0.00000
                          Z2        X3        Y3        Z3
           Z2           0.01452
           X3           0.00000   1.23375
           Y3          -0.00000   0.00000   0.01452
           Z3           0.03971   0.00000   0.00000   0.01452
 ITU=  1  0
     Eigenvalues ---    0.16199   0.16199   1.32238   3.42043
 RFO step:  Lambda= 0.00000000D+00 EMin= 1.61989921D-01
 Quintic linear search produced a step of -0.21060.
 B after Tr=    -0.000000    0.825548   -2.066721
         Rot=    0.928653   -0.370949   -0.000000    0.000000 Ang= -43.55 deg.
 Variable       Old X    -DE/DX   Delta X   Delta X   Delta X     New X
                                 (Linear)    (Quad)   (Total)
    X1       -2.38182   0.00000  -0.00000   0.00000   0.00000  -2.38182
    Y1        2.99974   0.00000   0.00000   0.00000   0.00000   2.99974
    Z1       -0.00000   0.00000   0.00000   0.00000   0.00000   0.00000
    X2       -4.54772  -0.05455  -0.04468  -0.00000  -0.04468  -4.59239
    Y2        2.99974  -0.00000  -0.00000  -0.00000  -0.00000   2.99974
    Z2        0.00000  -0.00000  -0.00000  -0.00000  -0.00000  -0.00000
    X3       -0.21592   0.05455   0.04468  -0.00000   0.04468  -0.17124
    Y3        2.99974  -0.00000  -0.00000  -0.00000  -0.00000   2.99974
    Z3        0.00000  -0.00000  -0.00000  -0.00000  -0.00000  -0.00000
         Item               Value     Threshold  Converged?
 Maximum Force            0.054550     0.000015     NO 
 RMS     Force            0.025715     0.000010     NO 
 Maximum Displacement     0.044675     0.000060     NO 
 RMS     Displacement     0.021060     0.000040     NO 
 Predicted change in Energy=-2.234762D-03
 GradGradGradGradGradGradGradGradGradGradGradGradGradGradGradGradGradGrad

                          Input orientation:                          
 ---------------------------------------------------------------------
 Center     Atomic      Atomic             Coordinates (Angstroms)
 Number     Number       Type             X           Y           Z
 ---------------------------------------------------------------------
      1          6           0       -1.260404    1.587396    0.000000
      2          8           0       -2.430190    1.587396   -0.000000
      3          8           0       -0.090619    1.587396   -0.000000
 ---------------------------------------------------------------------
                    Distance matrix (angstroms):
                    1          2          3
     1  C    0.000000
     2  O    1.169786   0.000000
     3  O    1.169786   2.339571   0.000000
 Symmetry turned off by external request.
 Stoichiometry    CO2
 Framework group  D*H[O(C),C*(O.O)]
 Deg. of freedom     1
 Full point group                 D*H     NOp   8
 Rotational constants (GHZ):           0.0000000          11.5449664          11.5449664
 Basis read from rwf:  (5D, 7F)
 Pseudo-potential data read from rwf file.
    54 basis functions,    96 primitive gaussians,    57 cartesian basis functions
    11 alpha electrons       11 beta electrons
       nuclear repulsion energy        57.9034980109 Hartrees.
 NAtoms=    3 NActive=    3 NUniq=    3 SFac= 1.00D+00 NAtFMM=   60 NAOKFM=F Big=F
 Integral buffers will be    131072 words long.
 Raffenetti 2 integral format.
 Two-electron integral symmetry is turned off.
 One-electron integrals computed using PRISM.
   1 Symmetry operations used in ECPInt.
 ECPInt:  NShTT=     120 NPrTT=     720 LenC2=     120 LenP2D=     615.
 LDataN:  DoStor=T MaxTD1= 4 Len=   56
 NBasis=    54 RedAO= T EigKep=  1.61D-03  NBF=    54
 NBsUse=    54 1.00D-06 EigRej= -1.00D+00 NBFU=    54
 Initial guess from the checkpoint file:  "CO2_opt_freq_sin.chk"
 B after Tr=    -0.000000    0.943374   -2.183989
         Rot=    0.918018   -0.396538   -0.000000   -0.000000 Ang= -46.72 deg.
 ExpMin= 4.38D-02 ExpMax= 5.48D+03 ExpMxC= 8.25D+02 IAcc=3 IRadAn=         5 AccDes= 0.00D+00
 Harris functional with IExCor=  402 and IRadAn=       5 diagonalized for initial guess.
 HarFok:  IExCor=  402 AccDes= 0.00D+00 IRadAn=         5 IDoV= 1 UseB2=F ITyADJ=14
 ICtDFT=  3500011 ScaDFX=  1.000000  1.000000  1.000000  1.000000
 FoFCou: FMM=F IPFlag=           0 FMFlag=      100000 FMFlg1=           0
         NFxFlg=           0 DoJE=T BraDBF=F KetDBF=T FulRan=T
         wScrn=  0.000000 ICntrl=       500 IOpCl=  0 I1Cent=   200000004 NGrid=           0
         NMat0=    1 NMatS0=      1 NMatT0=    0 NMatD0=    1 NMtDS0=    0 NMtDT0=    0
 Symmetry not used in FoFCou.
 Keep R1 ints in memory in canonical form, NReq=57477609.
 Gradient too large for Newton-Raphson -- use scaled steepest descent instead.
 Gradient too large for Newton-Raphson -- use scaled steepest descent instead.
     Accept linear search using points  2 and  3.
 LinEq1:  Iter=  0 NonCon=     1 RMS=2.58D-04 Max=2.64D-03 NDo=     1
 AX will form     1 AO Fock derivatives at one time.
 LinEq1:  Iter=  1 NonCon=     1 RMS=2.34D-04 Max=2.12D-03 NDo=     1
 LinEq1:  Iter=  2 NonCon=     1 RMS=6.40D-05 Max=3.86D-04 NDo=     1
 LinEq1:  Iter=  3 NonCon=     1 RMS=1.24D-05 Max=1.01D-04 NDo=     1
 LinEq1:  Iter=  4 NonCon=     1 RMS=1.17D-06 Max=6.21D-06 NDo=     1
 LinEq1:  Iter=  5 NonCon=     1 RMS=1.23D-07 Max=9.39D-07 NDo=     1
 LinEq1:  Iter=  6 NonCon=     1 RMS=6.11D-09 Max=5.13D-08 NDo=     1
 LinEq1:  Iter=  7 NonCon=     0 RMS=8.30D-10 Max=1.05D-08 NDo=     1
 Linear equations converged to 3.076D-09 3.076D-08 after     7 iterations.
     Accept linear search using points  1 and  2.
     Minimum is close to point  2 DX= -6.06D-04 DF= -1.86D-11 DXR=  6.06D-04 DFR=  3.68D-07 which will be used.
 LinEq1:  Iter=  0 NonCon=     1 RMS=3.98D-07 Max=3.90D-06 NDo=     1
 LinEq1:  Iter=  1 NonCon=     1 RMS=2.80D-07 Max=3.87D-06 NDo=     1
 LinEq1:  Iter=  2 NonCon=     1 RMS=5.04D-08 Max=4.15D-07 NDo=     1
 LinEq1:  Iter=  3 NonCon=     1 RMS=1.40D-08 Max=1.08D-07 NDo=     1
 LinEq1:  Iter=  4 NonCon=     1 RMS=2.63D-09 Max=2.61D-08 NDo=     1
 LinEq1:  Iter=  5 NonCon=     1 RMS=3.52D-09 Max=3.42D-08 NDo=     1
 LinEq1:  Iter=  6 NonCon=     1 RMS=2.33D-10 Max=2.44D-09 NDo=     1
 LinEq1:  Iter=  7 NonCon=     0 RMS=1.22D-11 Max=1.04D-10 NDo=     1
 Linear equations converged to 1.083D-10 1.083D-09 after     7 iterations.
 SCF Done:  E(RB3LYP) =  -188.587437378     a.u. after    5 cycles
            Convg  =    0.5324D-10                    24 Fock formations.
              S**2 =  0.0000                  -V/T =  2.0072
 DoSCS=F DFT=T ScalE2(SS,OS)=  1.000000  1.000000
 Range of M.O.s used for correlation:     1    54
 NBasis=    54 NAE=    11 NBE=    11 NFC=     0 NFV=     0
 NROrb=     54 NOA=    11 NOB=    11 NVA=    43 NVB=    43
   1 Symmetry operations used in ECPInt.
 ECPInt:  NShTT=     120 NPrTT=     720 LenC2=     120 LenP2D=     615.
 LDataN:  DoStor=T MaxTD1= 5 Len=  102
 Symmetrizing basis deriv contribution to polar:
 IMax=3 JMax=2 DiffMx= 0.00D+00
 G2DrvN: will do     4 centers at a time, making    1 passes.
 Calling FoFCou, ICntrl=  3107 FMM=F I1Cent=   0 AccDes= 0.00D+00.
 End of G2Drv F.D. properties file   721 does not exist.
 End of G2Drv F.D. properties file   722 does not exist.
 End of G2Drv F.D. properties file   788 does not exist.
          IDoAtm=111
          Differentiating once with respect to electric field.
                with respect to dipole field.
          Differentiating once with respect to nuclear coordinates.
 Keep R1 ints in memory in canonical form, NReq=57255456.
          There are    12 degrees of freedom in the 1st order CPHF.  IDoFFX=6 NUNeed=     3.
      9 vectors produced by pass  0 Test12= 3.94D-15 8.33D-09 XBig12= 2.80D+01 3.43D+00.
 AX will form     9 AO Fock derivatives at one time.
      9 vectors produced by pass  1 Test12= 3.94D-15 8.33D-09 XBig12= 1.78D+01 1.61D+00.
      9 vectors produced by pass  2 Test12= 3.94D-15 8.33D-09 XBig12= 8.89D-02 9.74D-02.
      9 vectors produced by pass  3 Test12= 3.94D-15 8.33D-09 XBig12= 3.15D-04 6.71D-03.
      9 vectors produced by pass  4 Test12= 3.94D-15 8.33D-09 XBig12= 7.69D-07 2.72D-04.
      7 vectors produced by pass  5 Test12= 3.94D-15 8.33D-09 XBig12= 1.57D-09 1.49D-05.
      4 vectors produced by pass  6 Test12= 3.94D-15 8.33D-09 XBig12= 2.81D-11 1.62D-06.
      1 vectors produced by pass  7 Test12= 3.94D-15 8.33D-09 XBig12= 3.22D-14 6.93D-08.
 InvSVY:  IOpt=1 It=  1 EMax= 2.22D-16
 Solved reduced A of dimension    57 with     9 vectors.
 Isotropic polarizability for W=    0.000000       15.01 Bohr**3.
 End of Minotr F.D. properties file   721 does not exist.
 End of Minotr F.D. properties file   722 does not exist.
 End of Minotr F.D. properties file   788 does not exist.
   1 Symmetry operations used in ECPInt.
 ECPInt:  NShTT=     120 NPrTT=     720 LenC2=     120 LenP2D=     615.
 LDataN:  DoStor=T MaxTD1= 6 Len=  172
 Calling FoFJK, ICntrl=    100127 FMM=F ISym2X=0 I1Cent= 0 IOpClX= 0 NMat=1 NMatS=1 NMatT=0.
 -------------------------------------------------------------------
 Center     Atomic                   Forces (Hartrees/Bohr)
 Number     Number              X              Y              Z
 -------------------------------------------------------------------
      1        6          -0.000000000   -0.000000000   -0.000000000
      2        8          -0.000001306    0.000000000    0.000000000
      3        8           0.000001307    0.000000000    0.000000000
 -------------------------------------------------------------------
 Cartesian Forces:  Max     0.000001307 RMS     0.000000616

 GradGradGradGradGradGradGradGradGradGradGradGradGradGradGradGradGradGrad
 Berny optimization.
 Search for a local minimum.
 Step number   3 out of a maximum of   20
 All quantities printed in internal units (Hartrees-Bohrs-Radians)
 Second derivative matrix not updated -- analytic derivatives used.
 DE= -2.37D-03 DEPred=-2.23D-03 R= 1.06D+00
 TightC=F SS=  1.41D+00  RLast= 6.32D-02 DXNew= 8.4853D-01 1.8954D-01
 Trust test= 1.06D+00 RLast= 6.32D-02 DXMaxT set to 5.05D-01
 The second derivative matrix:
                          X1        Y1        Z1        X2        Y2
           X1           1.92164
           Y1           0.00000   0.14169
           Z1           0.00000  -0.00000   0.14169
           X2          -0.96082  -0.00000  -0.00000   1.04246
           Y2          -0.00000  -0.07085  -0.00000   0.00000   0.03542
           Z2          -0.00000  -0.00000  -0.07085   0.00000   0.00000
           X3          -0.96082   0.00000   0.00000  -0.08164  -0.00000
           Y3           0.00000  -0.07085   0.00000   0.00000   0.03542
           Z3           0.00000   0.00000  -0.07085   0.00000  -0.00000
                          Z2        X3        Y3        Z3
           Z2           0.03542
           X3          -0.00000   1.04246
           Y3           0.00000  -0.00000   0.03542
           Z3           0.03542  -0.00000  -0.00000   0.03542
 ITU=  1  1  0
     Eigenvalues ---    0.21161   0.21161   1.12409   2.86992
 RFO step:  Lambda= 0.00000000D+00 EMin= 2.11614016D-01
 Quintic linear search produced a step of  0.00003.
 B after Tr=     0.000000    0.000000   -0.000001
         Rot=    1.000000   -0.000000   -0.000000    0.000000 Ang=  -0.00 deg.
 Variable       Old X    -DE/DX   Delta X   Delta X   Delta X     New X
                                 (Linear)    (Quad)   (Total)
    X1       -2.38182  -0.00000   0.00000  -0.00000  -0.00000  -2.38182
    Y1        2.99974  -0.00000   0.00000  -0.00000  -0.00000   2.99974
    Z1        0.00000  -0.00000   0.00000  -0.00000  -0.00000  -0.00000
    X2       -4.59239  -0.00000  -0.00000   0.00000  -0.00000  -4.59239
    Y2        2.99974   0.00000  -0.00000   0.00000   0.00000   2.99974
    Z2       -0.00000   0.00000  -0.00000   0.00000   0.00000   0.00000
    X3       -0.17124   0.00000   0.00000   0.00000   0.00000  -0.17124
    Y3        2.99974   0.00000  -0.00000   0.00000   0.00000   2.99974
    Z3       -0.00000   0.00000  -0.00000   0.00000   0.00000   0.00000
         Item               Value     Threshold  Converged?
 Maximum Force            0.000001     0.000015     YES
 RMS     Force            0.000001     0.000010     YES
 Maximum Displacement     0.000001     0.000060     YES
 RMS     Displacement     0.000001     0.000040     YES
 Predicted change in Energy=-1.518508D-12
 Optimization completed.
    -- Stationary point found.
 GradGradGradGradGradGradGradGradGradGradGradGradGradGradGradGradGradGrad

                          Input orientation:                          
 ---------------------------------------------------------------------
 Center     Atomic      Atomic             Coordinates (Angstroms)
 Number     Number       Type             X           Y           Z
 ---------------------------------------------------------------------
      1          6           0       -1.260404    1.587396    0.000000
      2          8           0       -2.430190    1.587396   -0.000000
      3          8           0       -0.090619    1.587396   -0.000000
 ---------------------------------------------------------------------
                    Distance matrix (angstroms):
                    1          2          3
     1  C    0.000000
     2  O    1.169786   0.000000
     3  O    1.169786   2.339571   0.000000
 Symmetry turned off by external request.
 Stoichiometry    CO2
 Framework group  D*H[O(C),C*(O.O)]
 Deg. of freedom     1
 Full point group                 D*H     NOp   8
 Rotational constants (GHZ):           0.0000000          11.5449664          11.5449664

 **********************************************************************

            Population analysis using the SCF Density.

 **********************************************************************

 Alpha  occ. eigenvalues --  -19.24929 -19.24924 -10.39704  -1.17583  -1.13503
 Alpha  occ. eigenvalues --   -0.57603  -0.53121  -0.52656  -0.52656  -0.38491
 Alpha  occ. eigenvalues --   -0.38491
 Alpha virt. eigenvalues --   -0.02061   0.01231   0.01231   0.05284   0.05435
 Alpha virt. eigenvalues --    0.05435   0.13494   0.17931   0.18903   0.18903
 Alpha virt. eigenvalues --    0.24144   0.25997   0.25997   0.29293   0.33574
 Alpha virt. eigenvalues --    0.65244   0.65244   0.73902   0.85574   1.03568
 Alpha virt. eigenvalues --    1.09498   1.09498   1.13976   1.22073   1.22073
 Alpha virt. eigenvalues --    1.30187   1.38049   1.38049   1.40439   1.40439
 Alpha virt. eigenvalues --    1.56056   1.71343   1.71343   2.01379   2.01379
 Alpha virt. eigenvalues --    2.10991   2.10991   2.13075   2.82887   2.96597
 Alpha virt. eigenvalues --    2.96597   3.24902   3.32994
          Condensed to atoms (all electrons):
               1          2          3
     1  C    4.521678   0.406580   0.406580
     2  O    0.406580   8.021106  -0.095105
     3  O    0.406580  -0.095105   8.021106
 Mulliken charges:
               1
     1  C    0.665163
     2  O   -0.332581
     3  O   -0.332581
 Sum of Mulliken charges =   0.00000
 Mulliken charges with hydrogens summed into heavy atoms:
               1
     1  C    0.665163
     2  O   -0.332581
     3  O   -0.332581
 APT charges:
               1
     1  C    1.171176
     2  O   -0.585588
     3  O   -0.585588
 Sum of APT charges =   0.00000
 APT charges with hydrogens summed into heavy atoms:
               1
     1  C    1.171176
     2  O   -0.585588
     3  O   -0.585588
 Electronic spatial extent (au):  <R**2>=            437.7974
 Charge=              0.0000 electrons
 Dipole moment (field-independent basis, Debye):
    X=              0.0000    Y=              0.0000    Z=              0.0000  Tot=              0.0000
 Quadrupole moment (field-independent basis, Debye-Ang):
   XX=            -19.7387   YY=            -14.9046   ZZ=            -14.9046
   XY=              0.0000   XZ=             -0.0000   YZ=              0.0000
 Traceless Quadrupole moment (field-independent basis, Debye-Ang):
   XX=             -3.2228   YY=              1.6114   ZZ=              1.6114
   XY=              0.0000   XZ=             -0.0000   YZ=              0.0000
 Octapole moment (field-independent basis, Debye-Ang**2):
  XXX=             74.6364  YYY=            -70.9783  ZZZ=              0.0000  XYY=             18.7858
  XXY=            -31.3332  XXZ=             -0.0000  XZZ=             18.7858  YZZ=            -23.6594
  YYZ=              0.0000  XYZ=             -0.0000
 Hexadecapole moment (field-independent basis, Debye-Ang**3):
 XXXX=           -294.9984 YYYY=           -237.4329 ZZZZ=            -12.0915 XXXY=            118.4775
 XXXZ=              0.0000 YYYX=             89.4614 YYYZ=              0.0000 ZZZX=             -0.0000
 ZZZY=              0.0000 XXYY=            -93.0153 XXZZ=            -43.2771 YYZZ=            -41.5874
 XXYZ=             -0.0000 YYXZ=             -0.0000 ZZXY=             29.8205
 N-N= 5.790349801093D+01 E-N=-5.588590755432D+02  KE= 1.872326607737D+02
  Exact polarizability:  26.370   0.000   9.336   0.000  -0.000   9.336
 Approx polarizability:  49.347   0.000  11.522  -0.000  -0.000  11.522
 Full mass-weighted force constant matrix:
 Low frequencies ---   -1.6501   -1.6501   -0.0007   -0.0006    0.0011  655.0242
 Low frequencies ---  655.0242 1362.7446 2412.2362
 Diagonal vibrational polarizability:
        3.0546617       2.0507906       2.0507906
 Harmonic frequencies (cm**-1), IR intensities (KM/Mole), Raman scattering
 activities (A**4/AMU), depolarization ratios for plane and unpolarized
 incident light, reduced masses (AMU), force constants (mDyne/A),
 and normal coordinates:
                      1                      2                      3
                      A                      A                      A
 Frequencies --    655.0242               655.0242              1362.7446
 Red. masses --     12.8774                12.8774                15.9949
 Frc consts  --      3.2553                 3.2553                17.5009
 IR Inten    --     32.6966                32.6966                 0.0000
  Atom  AN      X      Y      Z        X      Y      Z        X      Y      Z
     1   6    -0.00   0.88   0.05    -0.00  -0.05   0.88    -0.00  -0.00  -0.00
     2   8     0.00  -0.33  -0.02     0.00   0.02  -0.33     0.71   0.00   0.00
     3   8    -0.00  -0.33  -0.02    -0.00   0.02  -0.33    -0.71   0.00   0.00
                      4
                      A
 Frequencies --   2412.2362
 Red. masses --     12.8774
 Frc consts  --     44.1486
 IR Inten    --    660.4952
  Atom  AN      X      Y      Z
     1   6     0.88   0.00   0.00
     2   8    -0.33  -0.00  -0.00
     3   8    -0.33   0.00   0.00

 -------------------
 - Thermochemistry -
 -------------------
 Temperature   298.150 Kelvin.  Pressure   1.00000 Atm.
 Atom     1 has atomic number  6 and mass  12.00000
 Atom     2 has atomic number  8 and mass  15.99491
 Atom     3 has atomic number  8 and mass  15.99491
 Molecular mass:    43.98983 amu.
 Principal axes and moments of inertia in atomic units:
                           1         2         3
     Eigenvalues --     0.00000 156.32278 156.32278
           X            1.00000   0.00000  -0.00000
           Y            0.00000   0.00000   1.00000
           Z           -0.00000   1.00000  -0.00000
 This molecule is a prolate symmetric top.
 Rotational symmetry number  2.
 Rotational temperature (Kelvin)      0.55407
 Rotational constant (GHZ):          11.544966
 Zero-point vibrational energy      30415.2 (Joules/Mol)
                                    7.26941 (Kcal/Mol)
 Vibrational temperatures:    942.43   942.43  1960.69  3470.67
          (Kelvin)
 
 Zero-point correction=                           0.011585 (Hartree/Particle)
 Thermal correction to Energy=                    0.014218
 Thermal correction to Enthalpy=                  0.015162
 Thermal correction to Gibbs Free Energy=        -0.009129
 Sum of electronic and zero-point Energies=           -188.575853
 Sum of electronic and thermal Energies=              -188.573219
 Sum of electronic and thermal Enthalpies=            -188.572275
 Sum of electronic and thermal Free Energies=         -188.596566
 
                     E (Thermal)             CV                S
                      KCal/Mol        Cal/Mol-Kelvin    Cal/Mol-Kelvin
 Total                    8.922              6.926             51.125
 Electronic               0.000              0.000              0.000
 Translational            0.889              2.981             37.270
 Rotational               0.592              1.987             13.105
 Vibrational              7.441              1.958              0.749
                       Q            Log10(Q)             Ln(Q)
 Total Bot       0.158136D+05          4.199032          9.668628
 Total V=0       0.336938D+10          9.527550         21.937994
 Vib (Bot)       0.512519D-05         -5.290290        -12.181342
 Vib (V=0)       0.109201D+01          0.038228          0.088024
 Electronic      0.100000D+01          0.000000          0.000000
 Translational   0.114679D+08          7.059482         16.255059
 Rotational      0.269054D+03          2.429839          5.594912
 -------------------------------------------------------------------
 Center     Atomic                   Forces (Hartrees/Bohr)
 Number     Number              X              Y              Z
 -------------------------------------------------------------------
      1        6          -0.000000000   -0.000000000   -0.000000000
      2        8          -0.000001306    0.000000000    0.000000000
      3        8           0.000001307    0.000000000    0.000000000
 -------------------------------------------------------------------
 Cartesian Forces:  Max     0.000001307 RMS     0.000000616
 Dipole is zero, so no output in dipole orientation.

 ----------------------------------------------------------------------

 Electric dipole moment (input orientation):
 (Debye = 10**-18 statcoulomb cm , SI units = C m)
                  (au)            (Debye)         (10**-30 SI)
   Tot        0.000000D+00      0.000000D+00      0.000000D+00
   x          0.000000D+00      0.000000D+00      0.000000D+00
   y          0.000000D+00      0.000000D+00      0.000000D+00
   z          0.000000D+00      0.000000D+00      0.000000D+00

 Dipole polarizability, Alpha (input orientation).
 (esu units = cm**3 , SI units = C**2 m**2 J**-1)
 Alpha(0;0):
               (au)            (10**-24 esu)      (10**-40 SI)
   iso        0.150140D+02      0.222485D+01      0.247548D+01
   aniso      0.170342D+02      0.252421D+01      0.280856D+01
   xx         0.263702D+02      0.390766D+01      0.434785D+01
   yx         0.000000D+00      0.000000D+00      0.000000D+00
   yy         0.933595D+01      0.138345D+01      0.153929D+01
   zx         0.000000D+00      0.000000D+00      0.000000D+00
   zy         0.000000D+00      0.000000D+00      0.000000D+00
   zz         0.933595D+01      0.138345D+01      0.153929D+01

 ----------------------------------------------------------------------
 1\1\GINC-SG13\Freq\RB3LYP\Gen\C1O2\YSH\11-May-2023\0\\# opt=(calcall,t
 ight,cartesian) freq b3lyp/gen nosymm scf=(qc,maxcycle=1024) pseudo=re
 ad\\CO2_opt_freq_sin\\0,1\C,-1.26040427,1.58739593,0.\O,-2.4301899535,
 1.58739593,0.\O,-0.0906185865,1.58739593,0.\\Version=ES64L-G16RevB.01\
 HF=-188.5874374\RMSD=1.731e-12\RMSF=6.159e-07\ZeroPoint=0.0115845\Ther
 mal=0.014218\Dipole=0.,0.,0.\DipoleDeriv=2.4315301,0.,0.,0.,0.5409988,
 0.,0.,0.,0.5409988,-1.2157651,0.,0.,0.,-0.2704994,0.,0.,0.,-0.2704994,
 -1.2157651,0.,0.,0.,-0.2704994,0.,0.,0.,-0.2704994\Polar=26.3701734,0.
 ,9.3359499,0.,0.,9.3359499\PG=D*H [O(C1),C*(O1.O1)]\NImag=0\\1.9216399
 2,0.,0.14169256,0.,0.,0.14169256,-0.96081996,0.,0.,1.04245660,0.,-0.07
 084628,0.,0.,0.03542232,0.,0.,-0.07084628,0.,0.,0.03542232,-0.96081996
 ,0.,0.,-0.08163663,0.,0.,1.04245660,0.,-0.07084628,0.,0.,0.03542396,0.
 ,0.,0.03542232,0.,0.,-0.07084628,0.,0.,0.03542396,0.,0.,0.03542232\\0.
 ,0.,0.,0.00000131,0.,0.,-0.00000131,0.,0.\\\@


    THE DOUGHNUT CREED
 AS YOU RAMBLE ON THROUGH LIFE, BROTHER
 WHATEVER BE YOUR GOAL
 KEEP YOUR EYE UPON THE DOUGHNUT
 AND NOT UPON THE HOLE.
 Job cpu time:       0 days  0 hours 12 minutes 36.5 seconds.
 Elapsed time:       0 days  0 hours  0 minutes 13.9 seconds.
 File lengths (MBytes):  RWF=     17 Int=      0 D2E=      0 Chk=      2 Scr=      2
 Normal termination of Gaussian 16 at Thu May 11 00:38:44 2023.
 Link1:  Proceeding to internal job step number  2.
 ------------------------------------------------------------------
 #N Geom=AllCheck Guess=TCheck SCRF=Check GenChk RB3LYP/ChkBas Freq
 ------------------------------------------------------------------
 1/7=10,10=4,29=7,30=1,38=1,40=1/1,3;
 2/12=2,15=1,40=1/2;
 3/5=7,6=2,11=2,14=-4,16=1,17=8,25=1,30=1,67=1,70=2,71=2,74=-5,82=7,116=1,140=1/1,2,3;
 4/5=101/1;
 5/5=2,7=1024,8=3,38=6,98=1/8;
 8/6=4,10=90,11=11/1;
 11/6=1,8=1,9=11,15=111,16=1,31=1/1,2,10;
 10/6=1,31=1/2;
 6/7=2,8=2,9=2,10=2,28=1/1;
 7/8=1,10=1,25=1,30=1/1,2,3,16;
 1/7=10,10=4,30=1/3;
 99//99;
 Structure from the checkpoint file:  "CO2_opt_freq_sin.chk"
 ----------------
 CO2_opt_freq_sin
 ----------------
 Charge =  0 Multiplicity = 1
 No Z-Matrix found in chk file; cartesian coordinates used.
  C                                                -1.260404269998      1.587395930003      0.000000000004
  O                                                -2.430189953501      1.587395929998     -0.000000000002
  O                                                -0.090618586501      1.587395929998     -0.000000000002
 Recover connectivity data from disk.

 GradGradGradGradGradGradGradGradGradGradGradGradGradGradGradGradGradGrad
 Berny optimization.
 Initialization pass.
 Trust Radius=3.00D-01 FncErr=1.00D-07 GrdErr=1.00D-07 EigMax=2.50D+02 EigMin=1.00D-04
 Number of steps in this run=      2 maximum allowed number of steps=      2.
 GradGradGradGradGradGradGradGradGradGradGradGradGradGradGradGradGradGrad

                          Input orientation:                          
 ---------------------------------------------------------------------
 Center     Atomic      Atomic             Coordinates (Angstroms)
 Number     Number       Type             X           Y           Z
 ---------------------------------------------------------------------
      1          6           0       -1.260404    1.587396    0.000000
      2          8           0       -2.430190    1.587396   -0.000000
      3          8           0       -0.090619    1.587396   -0.000000
 ---------------------------------------------------------------------
                    Distance matrix (angstroms):
                    1          2          3
     1  C    0.000000
     2  O    1.169786   0.000000
     3  O    1.169786   2.339571   0.000000
 Symmetry turned off by external request.
 Stoichiometry    CO2
 Framework group  D*H[O(C),C*(O.O)]
 Deg. of freedom     1
 Full point group                 D*H     NOp   8
 Rotational constants (GHZ):           0.0000000          11.5449664          11.5449664
 Basis read from chk: "CO2_opt_freq_sin.chk" (5D, 7F)
 Pseudo-potential data read from chk file.
    54 basis functions,    96 primitive gaussians,    57 cartesian basis functions
    11 alpha electrons       11 beta electrons
       nuclear repulsion energy        57.9034980109 Hartrees.
 NAtoms=    3 NActive=    3 NUniq=    3 SFac= 1.00D+00 NAtFMM=   60 NAOKFM=F Big=F
 Integral buffers will be    131072 words long.
 Raffenetti 2 integral format.
 Two-electron integral symmetry is turned off.
 One-electron integrals computed using PRISM.
   1 Symmetry operations used in ECPInt.
 ECPInt:  NShTT=     120 NPrTT=     720 LenC2=     120 LenP2D=     615.
 LDataN:  DoStor=T MaxTD1= 4 Len=   56
 NBasis=    54 RedAO= T EigKep=  1.61D-03  NBF=    54
 NBsUse=    54 1.00D-06 EigRej= -1.00D+00 NBFU=    54
 Initial guess from the checkpoint file:  "CO2_opt_freq_sin.chk"
 B after Tr=     0.000000    0.000000    0.000000
         Rot=    1.000000    0.000000    0.000000    0.000000 Ang=   0.00 deg.
 Keep R1 ints in memory in canonical form, NReq=57477609.
 SCF Done:  E(RB3LYP) =  -188.587437378     a.u. after    1 cycles
            Convg  =    0.5323D-10                     1 Fock formations.
              S**2 =  0.0000                  -V/T =  2.0072
 DoSCS=F DFT=T ScalE2(SS,OS)=  1.000000  1.000000
 Range of M.O.s used for correlation:     1    54
 NBasis=    54 NAE=    11 NBE=    11 NFC=     0 NFV=     0
 NROrb=     54 NOA=    11 NOB=    11 NVA=    43 NVB=    43
   1 Symmetry operations used in ECPInt.
 ECPInt:  NShTT=     120 NPrTT=     720 LenC2=     120 LenP2D=     615.
 LDataN:  DoStor=T MaxTD1= 5 Len=  102
 Symmetrizing basis deriv contribution to polar:
 IMax=3 JMax=2 DiffMx= 0.00D+00
 G2DrvN: will do     4 centers at a time, making    1 passes.
 Calling FoFCou, ICntrl=  3107 FMM=F I1Cent=   0 AccDes= 0.00D+00.
 End of G2Drv F.D. properties file   721 does not exist.
 End of G2Drv F.D. properties file   722 does not exist.
 End of G2Drv F.D. properties file   788 does not exist.
          IDoAtm=111
          Differentiating once with respect to electric field.
                with respect to dipole field.
          Differentiating once with respect to nuclear coordinates.
 Keep R1 ints in memory in canonical form, NReq=57255456.
          There are    12 degrees of freedom in the 1st order CPHF.  IDoFFX=6 NUNeed=     3.
      9 vectors produced by pass  0 Test12= 3.94D-15 8.33D-09 XBig12= 2.80D+01 3.42D+00.
 AX will form     9 AO Fock derivatives at one time.
      9 vectors produced by pass  1 Test12= 3.94D-15 8.33D-09 XBig12= 1.78D+01 1.61D+00.
      9 vectors produced by pass  2 Test12= 3.94D-15 8.33D-09 XBig12= 8.89D-02 9.74D-02.
      9 vectors produced by pass  3 Test12= 3.94D-15 8.33D-09 XBig12= 3.15D-04 6.71D-03.
      9 vectors produced by pass  4 Test12= 3.94D-15 8.33D-09 XBig12= 7.69D-07 2.54D-04.
      7 vectors produced by pass  5 Test12= 3.94D-15 8.33D-09 XBig12= 1.57D-09 1.49D-05.
      4 vectors produced by pass  6 Test12= 3.94D-15 8.33D-09 XBig12= 2.81D-11 1.62D-06.
      1 vectors produced by pass  7 Test12= 3.94D-15 8.33D-09 XBig12= 3.22D-14 6.93D-08.
 InvSVY:  IOpt=1 It=  1 EMax= 4.44D-16
 Solved reduced A of dimension    57 with     9 vectors.
 Isotropic polarizability for W=    0.000000       15.01 Bohr**3.
 End of Minotr F.D. properties file   721 does not exist.
 End of Minotr F.D. properties file   722 does not exist.
 End of Minotr F.D. properties file   788 does not exist.

 **********************************************************************

            Population analysis using the SCF Density.

 **********************************************************************

 Alpha  occ. eigenvalues --  -19.24929 -19.24924 -10.39704  -1.17583  -1.13503
 Alpha  occ. eigenvalues --   -0.57603  -0.53121  -0.52656  -0.52656  -0.38491
 Alpha  occ. eigenvalues --   -0.38491
 Alpha virt. eigenvalues --   -0.02061   0.01231   0.01231   0.05284   0.05435
 Alpha virt. eigenvalues --    0.05435   0.13494   0.17931   0.18903   0.18903
 Alpha virt. eigenvalues --    0.24144   0.25997   0.25997   0.29293   0.33574
 Alpha virt. eigenvalues --    0.65244   0.65244   0.73902   0.85574   1.03568
 Alpha virt. eigenvalues --    1.09498   1.09498   1.13976   1.22073   1.22073
 Alpha virt. eigenvalues --    1.30187   1.38049   1.38049   1.40439   1.40439
 Alpha virt. eigenvalues --    1.56056   1.71343   1.71343   2.01379   2.01379
 Alpha virt. eigenvalues --    2.10991   2.10991   2.13075   2.82887   2.96597
 Alpha virt. eigenvalues --    2.96597   3.24902   3.32994
          Condensed to atoms (all electrons):
               1          2          3
     1  C    4.521678   0.406580   0.406580
     2  O    0.406580   8.021106  -0.095105
     3  O    0.406580  -0.095105   8.021106
 Mulliken charges:
               1
     1  C    0.665163
     2  O   -0.332581
     3  O   -0.332581
 Sum of Mulliken charges =   0.00000
 Mulliken charges with hydrogens summed into heavy atoms:
               1
     1  C    0.665163
     2  O   -0.332581
     3  O   -0.332581
 APT charges:
               1
     1  C    1.171176
     2  O   -0.585588
     3  O   -0.585588
 Sum of APT charges =   0.00000
 APT charges with hydrogens summed into heavy atoms:
               1
     1  C    1.171176
     2  O   -0.585588
     3  O   -0.585588
 Electronic spatial extent (au):  <R**2>=            437.7974
 Charge=              0.0000 electrons
 Dipole moment (field-independent basis, Debye):
    X=              0.0000    Y=              0.0000    Z=              0.0000  Tot=              0.0000
 Quadrupole moment (field-independent basis, Debye-Ang):
   XX=            -19.7387   YY=            -14.9046   ZZ=            -14.9046
   XY=              0.0000   XZ=             -0.0000   YZ=              0.0000
 Traceless Quadrupole moment (field-independent basis, Debye-Ang):
   XX=             -3.2228   YY=              1.6114   ZZ=              1.6114
   XY=              0.0000   XZ=             -0.0000   YZ=              0.0000
 Octapole moment (field-independent basis, Debye-Ang**2):
  XXX=             74.6364  YYY=            -70.9783  ZZZ=              0.0000  XYY=             18.7858
  XXY=            -31.3332  XXZ=             -0.0000  XZZ=             18.7858  YZZ=            -23.6594
  YYZ=              0.0000  XYZ=             -0.0000
 Hexadecapole moment (field-independent basis, Debye-Ang**3):
 XXXX=           -294.9984 YYYY=           -237.4329 ZZZZ=            -12.0915 XXXY=            118.4775
 XXXZ=              0.0000 YYYX=             89.4614 YYYZ=              0.0000 ZZZX=             -0.0000
 ZZZY=              0.0000 XXYY=            -93.0153 XXZZ=            -43.2771 YYZZ=            -41.5874
 XXYZ=             -0.0000 YYXZ=             -0.0000 ZZXY=             29.8205
 N-N= 5.790349801093D+01 E-N=-5.588590755432D+02  KE= 1.872326607738D+02
  Exact polarizability:  26.370  -0.000   9.336   0.000  -0.000   9.336
 Approx polarizability:  49.347  -0.000  11.522  -0.000  -0.000  11.522
   1 Symmetry operations used in ECPInt.
 ECPInt:  NShTT=     120 NPrTT=     720 LenC2=     120 LenP2D=     615.
 LDataN:  DoStor=T MaxTD1= 6 Len=  172
 Calling FoFJK, ICntrl=    100127 FMM=F ISym2X=0 I1Cent= 0 IOpClX= 0 NMat=1 NMatS=1 NMatT=0.
 Full mass-weighted force constant matrix:
 Low frequencies ---   -1.6501   -1.6501   -0.0016   -0.0016   -0.0013  655.0242
 Low frequencies ---  655.0242 1362.7446 2412.2362
 Diagonal vibrational polarizability:
        3.0546617       2.0507906       2.0507906
 Harmonic frequencies (cm**-1), IR intensities (KM/Mole), Raman scattering
 activities (A**4/AMU), depolarization ratios for plane and unpolarized
 incident light, reduced masses (AMU), force constants (mDyne/A),
 and normal coordinates:
                      1                      2                      3
                      A                      A                      A
 Frequencies --    655.0242               655.0242              1362.7446
 Red. masses --     12.8774                12.8774                15.9949
 Frc consts  --      3.2553                 3.2553                17.5009
 IR Inten    --     32.6966                32.6966                 0.0000
  Atom  AN      X      Y      Z        X      Y      Z        X      Y      Z
     1   6    -0.00   0.88   0.01    -0.00  -0.01   0.88    -0.00  -0.00  -0.00
     2   8     0.00  -0.33  -0.00     0.00   0.00  -0.33     0.71   0.00   0.00
     3   8    -0.00  -0.33  -0.00    -0.00   0.00  -0.33    -0.71   0.00   0.00
                      4
                      A
 Frequencies --   2412.2362
 Red. masses --     12.8774
 Frc consts  --     44.1486
 IR Inten    --    660.4952
  Atom  AN      X      Y      Z
     1   6     0.88   0.00   0.00
     2   8    -0.33  -0.00  -0.00
     3   8    -0.33   0.00   0.00

 -------------------
 - Thermochemistry -
 -------------------
 Temperature   298.150 Kelvin.  Pressure   1.00000 Atm.
 Atom     1 has atomic number  6 and mass  12.00000
 Atom     2 has atomic number  8 and mass  15.99491
 Atom     3 has atomic number  8 and mass  15.99491
 Molecular mass:    43.98983 amu.
 Principal axes and moments of inertia in atomic units:
                           1         2         3
     Eigenvalues --     0.00000 156.32278 156.32278
           X            1.00000   0.00000  -0.00000
           Y            0.00000   0.00000   1.00000
           Z           -0.00000   1.00000  -0.00000
 This molecule is a prolate symmetric top.
 Rotational symmetry number  2.
 Rotational temperature (Kelvin)      0.55407
 Rotational constant (GHZ):          11.544966
 Zero-point vibrational energy      30415.2 (Joules/Mol)
                                    7.26941 (Kcal/Mol)
 Vibrational temperatures:    942.43   942.43  1960.69  3470.67
          (Kelvin)
 
 Zero-point correction=                           0.011585 (Hartree/Particle)
 Thermal correction to Energy=                    0.014218
 Thermal correction to Enthalpy=                  0.015162
 Thermal correction to Gibbs Free Energy=        -0.009129
 Sum of electronic and zero-point Energies=           -188.575853
 Sum of electronic and thermal Energies=              -188.573219
 Sum of electronic and thermal Enthalpies=            -188.572275
 Sum of electronic and thermal Free Energies=         -188.596566
 
                     E (Thermal)             CV                S
                      KCal/Mol        Cal/Mol-Kelvin    Cal/Mol-Kelvin
 Total                    8.922              6.926             51.125
 Electronic               0.000              0.000              0.000
 Translational            0.889              2.981             37.270
 Rotational               0.592              1.987             13.105
 Vibrational              7.441              1.958              0.749
                       Q            Log10(Q)             Ln(Q)
 Total Bot       0.158136D+05          4.199032          9.668628
 Total V=0       0.336938D+10          9.527550         21.937994
 Vib (Bot)       0.512519D-05         -5.290290        -12.181342
 Vib (V=0)       0.109201D+01          0.038228          0.088024
 Electronic      0.100000D+01          0.000000          0.000000
 Translational   0.114679D+08          7.059482         16.255059
 Rotational      0.269054D+03          2.429839          5.594912
 -------------------------------------------------------------------
 Center     Atomic                   Forces (Hartrees/Bohr)
 Number     Number              X              Y              Z
 -------------------------------------------------------------------
      1        6          -0.000000000   -0.000000000   -0.000000000
      2        8          -0.000001306    0.000000000    0.000000000
      3        8           0.000001307    0.000000000    0.000000000
 -------------------------------------------------------------------
 Cartesian Forces:  Max     0.000001307 RMS     0.000000616

 GradGradGradGradGradGradGradGradGradGradGradGradGradGradGradGradGradGrad
 Berny optimization.
 Search for a local minimum.
 Step number   1 out of a maximum of    2
 All quantities printed in internal units (Hartrees-Bohrs-Radians)
 Second derivative matrix not updated -- analytic derivatives used.
 The second derivative matrix:
                          X1        Y1        Z1        X2        Y2
           X1           1.92164
           Y1           0.00000   0.14169
           Z1           0.00000  -0.00000   0.14169
           X2          -0.96082  -0.00000  -0.00000   1.04246
           Y2          -0.00000  -0.07085  -0.00000   0.00000   0.03542
           Z2          -0.00000   0.00000  -0.07085   0.00000  -0.00000
           X3          -0.96082   0.00000   0.00000  -0.08164  -0.00000
           Y3           0.00000  -0.07085   0.00000   0.00000   0.03542
           Z3           0.00000  -0.00000  -0.07085   0.00000   0.00000
                          Z2        X3        Y3        Z3
           Z2           0.03542
           X3          -0.00000   1.04246
           Y3          -0.00000  -0.00000   0.03542
           Z3           0.03542  -0.00000   0.00000   0.03542
 ITU=  0
     Eigenvalues ---    0.21161   0.21161   1.12409   2.86992
 Angle between quadratic step and forces=   0.00 degrees.
 Linear search not attempted -- first point.
 B after Tr=     0.000000    0.000000   -0.000001
         Rot=    1.000000   -0.000000   -0.000000    0.000000 Ang=  -0.00 deg.
 Variable       Old X    -DE/DX   Delta X   Delta X   Delta X     New X
                                 (Linear)    (Quad)   (Total)
    X1       -2.38182  -0.00000   0.00000  -0.00000  -0.00000  -2.38182
    Y1        2.99974  -0.00000   0.00000  -0.00000  -0.00000   2.99974
    Z1        0.00000  -0.00000   0.00000  -0.00000  -0.00000  -0.00000
    X2       -4.59239  -0.00000   0.00000  -0.00000  -0.00000  -4.59239
    Y2        2.99974   0.00000   0.00000   0.00000   0.00000   2.99974
    Z2       -0.00000   0.00000   0.00000   0.00000   0.00000   0.00000
    X3       -0.17124   0.00000   0.00000   0.00000   0.00000  -0.17124
    Y3        2.99974   0.00000   0.00000   0.00000   0.00000   2.99974
    Z3       -0.00000   0.00000   0.00000   0.00000   0.00000   0.00000
         Item               Value     Threshold  Converged?
 Maximum Force            0.000001     0.000015     YES
 RMS     Force            0.000001     0.000010     YES
 Maximum Displacement     0.000001     0.000060     YES
 RMS     Displacement     0.000001     0.000040     YES
 Predicted change in Energy=-1.518508D-12
 Optimization completed.
    -- Stationary point found.
 GradGradGradGradGradGradGradGradGradGradGradGradGradGradGradGradGradGrad

 Dipole is zero, so no output in dipole orientation.

 ----------------------------------------------------------------------

 Electric dipole moment (input orientation):
 (Debye = 10**-18 statcoulomb cm , SI units = C m)
                  (au)            (Debye)         (10**-30 SI)
   Tot        0.000000D+00      0.000000D+00      0.000000D+00
   x          0.000000D+00      0.000000D+00      0.000000D+00
   y          0.000000D+00      0.000000D+00      0.000000D+00
   z          0.000000D+00      0.000000D+00      0.000000D+00

 Dipole polarizability, Alpha (input orientation).
 (esu units = cm**3 , SI units = C**2 m**2 J**-1)
 Alpha(0;0):
               (au)            (10**-24 esu)      (10**-40 SI)
   iso        0.150140D+02      0.222485D+01      0.247548D+01
   aniso      0.170342D+02      0.252421D+01      0.280856D+01
   xx         0.263702D+02      0.390766D+01      0.434785D+01
   yx         0.000000D+00      0.000000D+00      0.000000D+00
   yy         0.933595D+01      0.138345D+01      0.153929D+01
   zx         0.000000D+00      0.000000D+00      0.000000D+00
   zy         0.000000D+00      0.000000D+00      0.000000D+00
   zz         0.933595D+01      0.138345D+01      0.153929D+01

 ----------------------------------------------------------------------
 1\1\GINC-SG13\Freq\RB3LYP\Gen\C1O2\YSH\11-May-2023\0\\#N Geom=AllCheck
  Guess=TCheck SCRF=Check GenChk RB3LYP/ChkBas Freq\\CO2_opt_freq_sin\\
 0,1\C,-1.26040427,1.58739593,0.\O,-2.4301899535,1.58739593,0.\O,-0.090
 6185865,1.58739593,0.\\Version=ES64L-G16RevB.01\HF=-188.5874374\RMSD=1
 .731e-12\RMSF=6.159e-07\ZeroPoint=0.0115845\Thermal=0.014218\Dipole=0.
 ,0.,0.\DipoleDeriv=2.4315301,0.,0.,0.,0.5409988,0.,0.,0.,0.5409988,-1.
 2157651,0.,0.,0.,-0.2704994,0.,0.,0.,-0.2704994,-1.2157651,0.,0.,0.,-0
 .2704994,0.,0.,0.,-0.2704994\Polar=26.3701734,0.,9.3359499,0.,0.,9.335
 9499\Quadrupole=-2.3960661,1.198033,1.198033,0.,0.,0.\PG=D*H [O(C1),C*
 (O1.O1)]\NImag=0\\1.92163992,0.,0.14169256,0.,0.,0.14169256,-0.9608199
 6,0.,0.,1.04245660,0.,-0.07084628,0.,0.,0.03542232,0.,0.,-0.07084628,0
 .,0.,0.03542232,-0.96081996,0.,0.,-0.08163663,0.,0.,1.04245660,0.,-0.0
 7084628,0.,0.,0.03542396,0.,0.,0.03542232,0.,0.,-0.07084628,0.,0.,0.03
 542396,0.,0.,0.03542232\\0.,0.,0.,0.00000131,0.,0.,-0.00000131,0.,0.\\
 \@


 BE NOT THE FIRST BY WHOM THE NEW ARE TRIED,
 NOR YET THE THE LAST TO LAY THE OLD ASIDE.

                          -- ALEXANDER POPE
 Job cpu time:       0 days  0 hours  3 minutes  9.9 seconds.
 Elapsed time:       0 days  0 hours  0 minutes  3.4 seconds.
 File lengths (MBytes):  RWF=     17 Int=      0 D2E=      0 Chk=      2 Scr=      2
 Normal termination of Gaussian 16 at Thu May 11 00:38:48 2023.
