 Entering Gaussian System, Link 0=g16
 Input=OH_AGE_TEABr_CO2_opt_freq_TEA_relax_6_31Gdp_re.com
 Output=OH_AGE_TEABr_CO2_opt_freq_TEA_relax_6_31Gdp_re.log
 Initial command:
 /opt/ohpc/pub/apps/gaussian/avx2/g16/l1.exe "/scratch/g16-tmp/Gau-90310.inp" -scrdir="/scratch/g16-tmp/"
 Entering Link 1 = /opt/ohpc/pub/apps/gaussian/avx2/g16/l1.exe PID=     90311.
  
 Copyright (c) 1988-2017, Gaussian, Inc.  All Rights Reserved.
  
 This is part of the Gaussian(R) 16 program.  It is based on
 the Gaussian(R) 09 system (copyright 2009, Gaussian, Inc.),
 the Gaussian(R) 03 system (copyright 2003, Gaussian, Inc.),
 the Gaussian(R) 98 system (copyright 1998, Gaussian, Inc.),
 the Gaussian(R) 94 system (copyright 1995, Gaussian, Inc.),
 the Gaussian 92(TM) system (copyright 1992, Gaussian, Inc.),
 the Gaussian 90(TM) system (copyright 1990, Gaussian, Inc.),
 the Gaussian 88(TM) system (copyright 1988, Gaussian, Inc.),
 the Gaussian 86(TM) system (copyright 1986, Carnegie Mellon
 University), and the Gaussian 82(TM) system (copyright 1983,
 Carnegie Mellon University). Gaussian is a federally registered
 trademark of Gaussian, Inc.
  
 This software contains proprietary and confidential information,
 including trade secrets, belonging to Gaussian, Inc.
  
 This software is provided under written license and may be
 used, copied, transmitted, or stored only in accord with that
 written license.
  
 The following legend is applicable only to US Government
 contracts under FAR:
  
                    RESTRICTED RIGHTS LEGEND
  
 Use, reproduction and disclosure by the US Government is
 subject to restrictions as set forth in subparagraphs (a)
 and (c) of the Commercial Computer Software - Restricted
 Rights clause in FAR 52.227-19.
  
 Gaussian, Inc.
 340 Quinnipiac St., Bldg. 40, Wallingford CT 06492
  
  
 ---------------------------------------------------------------
 Warning -- This program may not be used in any manner that
 competes with the business of Gaussian, Inc. or will provide
 assistance to any competitor of Gaussian, Inc.  The licensee
 of this program is prohibited from giving any competitor of
 Gaussian, Inc. access to this program.  By using this program,
 the user acknowledges that Gaussian, Inc. is engaged in the
 business of creating and licensing software in the field of
 computational chemistry and represents and warrants to the
 licensee that it is not a competitor of Gaussian, Inc. and that
 it will not use this program in any manner prohibited above.
 ---------------------------------------------------------------
  

 Cite this work as:
 Gaussian 16, Revision B.01,
 M. J. Frisch, G. W. Trucks, H. B. Schlegel, G. E. Scuseria, 
 M. A. Robb, J. R. Cheeseman, G. Scalmani, V. Barone, 
 G. A. Petersson, H. Nakatsuji, X. Li, M. Caricato, A. V. Marenich, 
 J. Bloino, B. G. Janesko, R. Gomperts, B. Mennucci, H. P. Hratchian, 
 J. V. Ortiz, A. F. Izmaylov, J. L. Sonnenberg, D. Williams-Young, 
 F. Ding, F. Lipparini, F. Egidi, J. Goings, B. Peng, A. Petrone, 
 T. Henderson, D. Ranasinghe, V. G. Zakrzewski, J. Gao, N. Rega, 
 G. Zheng, W. Liang, M. Hada, M. Ehara, K. Toyota, R. Fukuda, 
 J. Hasegawa, M. Ishida, T. Nakajima, Y. Honda, O. Kitao, H. Nakai, 
 T. Vreven, K. Throssell, J. A. Montgomery, Jr., J. E. Peralta, 
 F. Ogliaro, M. J. Bearpark, J. J. Heyd, E. N. Brothers, K. N. Kudin, 
 V. N. Staroverov, T. A. Keith, R. Kobayashi, J. Normand, 
 K. Raghavachari, A. P. Rendell, J. C. Burant, S. S. Iyengar, 
 J. Tomasi, M. Cossi, J. M. Millam, M. Klene, C. Adamo, R. Cammi, 
 J. W. Ochterski, R. L. Martin, K. Morokuma, O. Farkas, 
 J. B. Foresman, and D. J. Fox, Gaussian, Inc., Wallingford CT, 2016.
 
 ******************************************
 Gaussian 16:  ES64L-G16RevB.01 20-Dec-2017
                27-Sep-2023 
 ******************************************
 %nprocshared=64
 Will use up to   64 processors via shared memory.
 %mem=64GB
 %chk=OH_AGE_TEABr_CO2_opt_freq_TEA_relax_6_31Gdp_re.chk
 ----------------------------------------------------------------------
 # opt=(calcall,tight,cartesian) freq b3lyp/gen nosymm scf=(qc,maxcycle
 =1024) pseudo=read
 ----------------------------------------------------------------------
 1/7=10,10=4,18=10,26=3,38=1/1,3;
 2/12=2,15=1,17=6,18=5,29=2,40=1/2;
 3/5=7,11=2,16=1,17=8,25=1,30=1,71=2,74=-5,140=1/1,2,3;
 4//1;
 5/5=2,7=1024,8=3,38=5/8;
 8/6=4,10=90,11=11/1;
 11/6=1,8=1,9=11,15=111,16=1,31=1/1,2,10;
 10/6=1,31=1/2;
 6/7=2,8=2,9=2,10=2,18=1,28=1/1;
 7/7=1,10=1,25=1,30=1/1,2,3,16;
 1/7=10,10=4,18=10,26=3/3(3);
 2/15=1,29=1/2;
 7/7=1,8=1,9=1,25=1,30=1,44=-1/16;
 99/12=1/99;
 2/15=1,29=1/2;
 3/5=7,6=1,11=2,16=1,17=8,25=1,30=1,71=2,74=-5,82=7,140=1/1,2,3;
 4/5=5,16=3,69=1/1;
 5/5=2,7=1024,8=3,38=5/8;
 8/6=4,10=90,11=11/1;
 11/6=1,8=1,9=11,15=111,16=1,31=1/1,2,10;
 10/6=1,31=1/2;
 7/7=1,10=1,25=1,30=1/1,2,3,16;
 1/7=10,10=4,18=10,26=3/3(-8);
 2/15=1,29=1/2;
 6/7=2,8=2,9=2,10=2,18=1,19=2,28=1/1;
 7/7=1,8=1,9=1,25=1,30=1,44=-1/16;
 99/12=1/99;
 ----------------------------------------------
 OH_AGE_TEABr_CO2_opt_freq_TEA_relax_6_31Gdp_re
 ----------------------------------------------
 Symbolic Z-matrix:
 Charge =  0 Multiplicity = 1
 Zn                   0    -2.74463  -0.07651  -0.13346 
 O                    0    -1.35419  -1.54547  -0.8549 
 O                    0     0.84887   0.22339  -0.66379 
 O                    -1   -1.94049  -0.63788   1.72455 
 O                    -1   -0.37269   1.01087   1.91697 
 C                    -1   -1.06872   0.05737   2.35689 
 Zn                   0    -0.15466   1.84476  -0.0899 
 O                    -1   -1.63008   3.22081   0.54068 
 O                    -1   -3.34506   1.72518   0.7202 
 O                    -1   -1.08556   1.98476  -2.06075 
 O                    -1   -2.99376   0.73733  -2.01137 
 C                    -1   -2.81579   2.87056   0.84076 
 C                    -1   -2.15087   1.52281  -2.5591 
 H                    -1   -0.90808  -0.23463   3.41991 
 H                    -1   -3.46664   3.66873   1.26094 
 H                    -1   -2.38928   1.83636  -3.59889 
 C                    -1    2.59139   2.8597   -0.55114 
 C                    -1    3.70861   3.70782  -0.53735 
 C                    -1    3.56604   5.00673  -0.02115 
 C                    -1    2.30987   5.41502   0.45914 
 C                    -1    1.24091   4.5082    0.4104 
 N                    -1    1.38395   3.25577  -0.08258 
 H                    -1    4.41909   5.6904    0.00577 
 H                    -1    2.63016   1.83613  -0.93464 
 H                    -1    4.66543   3.35003  -0.92345 
 H                    -1    2.15477   6.41643   0.86647 
 H                    -1    0.23924   4.76357   0.76449 
 C                    -1   -4.7348   -1.98934   1.01851 
 C                    -1   -5.89393  -2.77545   1.08885 
 C                    -1   -6.7547   -2.81324  -0.02128 
 C                    -1   -6.42657  -2.06253  -1.16273 
 C                    -1   -5.2498   -1.29945  -1.15551 
 N                    -1   -4.42128  -1.26805  -0.08421 
 H                    -1   -7.66587  -3.41713   0.0031 
 H                    -1   -4.0254   -1.91717   1.84682 
 H                    -1   -6.11102  -3.34226   1.99667 
 H                    -1   -7.0675   -2.06191  -2.04688 
 H                    -1   -4.94024  -0.69138  -2.00924 
 H                    0     0.20742  -0.49642  -0.86013 
 H                    0     2.13971  -0.15946  -0.70607 
 H                    0    -1.25528  -2.15227  -0.09011 
 C                    0     8.01205   0.14632   4.41849 
 C                    0     7.57805  -0.49197   3.32695 
 C                    0     6.97835   0.18484   2.13183 
 O                    0     5.72037  -0.47793   1.81863 
 C                    0     5.0861   -0.00179   0.60091 
 C                    0     3.83788  -0.84804   0.35731 
 C                    0     4.13124  -2.34112   0.35955 
 O                    0     3.20593  -0.39911  -0.84604 
 H                    0     8.46489  -0.38376   5.25055 
 H                    0     7.92992   1.22578   4.52284 
 H                    0     7.65667  -1.57473   3.24837 
 H                    0     7.65132   0.10249   1.26057 
 H                    0     6.81084   1.25558   2.32631 
 H                    0     5.76926  -0.09902  -0.25478 
 H                    0     4.7945    1.05231   0.70554 
 H                    0     3.16108  -0.70302   1.21965 
 H                    0     3.23785  -2.93174   0.16655 
 H                    0     4.6411   -2.64748   1.27024 
 N                    0     2.0783   -1.24111  -4.50607 
 C                    0     1.16241  -0.14506  -3.86054 
 C                    0     1.12279   1.22175  -4.54293 
 H                    0     1.48576  -0.04157  -2.8246 
 H                    0     0.15946  -0.57919  -3.83246 
 H                    0     0.51937   1.85666  -3.88426 
 H                    0     2.10163   1.6951   -4.6554 
 H                    0     0.62923   1.20074  -5.52 
 C                    0     2.01801  -1.11895  -6.03195 
 C                    0     2.87947  -2.10471  -6.82272 
 H                    0     2.31315  -0.09882  -6.27322 
 H                    0     0.96125  -1.23147  -6.29193 
 H                    0     2.774    -1.86297  -7.88632 
 H                    0     3.94136  -2.02451  -6.57366 
 H                    0     2.57021  -3.14519  -6.69755 
 C                    0     1.48947  -2.62529  -4.11501 
 C                    0     1.62857  -2.99633  -2.64158 
 H                    0     2.00558  -3.36065  -4.73456 
 H                    0     0.43351  -2.5821   -4.38977 
 H                    0     0.97262  -3.8533   -2.45538 
 H                    0     2.65136  -3.27371  -2.37615 
 H                    0     1.30607  -2.19223  -1.97976 
 C                    0     3.51793  -1.16101  -3.96158 
 C                    0     4.34378   0.04318  -4.40601 
 H                    0     4.00338  -2.0933   -4.26117 
 H                    0     3.43626  -1.14567  -2.87005 
 H                    0     5.35218  -0.09473  -4.00074 
 H                    0     4.43605   0.14482  -5.49243 
 H                    0     3.95853   0.97716  -3.99228 
 Br                   0     5.42152  -2.90971  -1.13282 
 C                    0    -1.59048  -2.49148  -2.14695 
 O                    0    -1.43554  -1.84747  -3.20229 
 O                    0    -1.84462  -3.6551   -1.79454 
 

 GradGradGradGradGradGradGradGradGradGradGradGradGradGradGradGradGradGrad
 Berny optimization.
 Initialization pass.
 No Z-matrix variables, so optimization will use Cartesian coordinates.
 Trust Radius=3.00D-01 FncErr=1.00D-07 GrdErr=1.00D-06 EigMax=2.50D+02 EigMin=1.00D-04
 Number of steps in this run=    286 maximum allowed number of steps=    552.
 GradGradGradGradGradGradGradGradGradGradGradGradGradGradGradGradGradGrad

 Symmetry turned off by external request.
 Stoichiometry    C28H46BrN3O12Zn2
 Framework group  C1[X(C28H46BrN3O12Zn2)]
 Deg. of freedom   270
 Full point group                 C1      NOp   1
                          Input orientation:                          
 ---------------------------------------------------------------------
 Center     Atomic      Atomic             Coordinates (Angstroms)
 Number     Number       Type             X           Y           Z
 ---------------------------------------------------------------------
      1         30           0       -2.744633   -0.076514   -0.133456
      2          8           0       -1.354187   -1.545466   -0.854902
      3          8           0        0.848868    0.223390   -0.663786
      4          8           0       -1.940493   -0.637880    1.724552
      5          8           0       -0.372693    1.010875    1.916972
      6          6           0       -1.068724    0.057367    2.356892
      7         30           0       -0.154664    1.844756   -0.089899
      8          8           0       -1.630079    3.220806    0.540676
      9          8           0       -3.345064    1.725183    0.720202
     10          8           0       -1.085559    1.984761   -2.060749
     11          8           0       -2.993756    0.737325   -2.011366
     12          6           0       -2.815788    2.870560    0.840756
     13          6           0       -2.150867    1.522812   -2.559095
     14          1           0       -0.908079   -0.234626    3.419908
     15          1           0       -3.466636    3.668730    1.260937
     16          1           0       -2.389282    1.836355   -3.598888
     17          6           0        2.591387    2.859704   -0.551135
     18          6           0        3.708612    3.707815   -0.537348
     19          6           0        3.566043    5.006726   -0.021154
     20          6           0        2.309865    5.415023    0.459138
     21          6           0        1.240906    4.508199    0.410399
     22          7           0        1.383948    3.255771   -0.082584
     23          1           0        4.419088    5.690402    0.005770
     24          1           0        2.630158    1.836132   -0.934636
     25          1           0        4.665434    3.350028   -0.923448
     26          1           0        2.154774    6.416431    0.866473
     27          1           0        0.239236    4.763568    0.764493
     28          6           0       -4.734795   -1.989342    1.018511
     29          6           0       -5.893934   -2.775449    1.088845
     30          6           0       -6.754703   -2.813244   -0.021280
     31          6           0       -6.426568   -2.062530   -1.162730
     32          6           0       -5.249797   -1.299450   -1.155511
     33          7           0       -4.421278   -1.268045   -0.084209
     34          1           0       -7.665873   -3.417132    0.003100
     35          1           0       -4.025399   -1.917166    1.846823
     36          1           0       -6.111019   -3.342262    1.996669
     37          1           0       -7.067496   -2.061912   -2.046875
     38          1           0       -4.940236   -0.691384   -2.009240
     39          1           0        0.207422   -0.496419   -0.860131
     40          1           0        2.139709   -0.159457   -0.706068
     41          1           0       -1.255283   -2.152267   -0.090110
     42          6           0        8.012053    0.146318    4.418488
     43          6           0        7.578052   -0.491966    3.326953
     44          6           0        6.978352    0.184838    2.131827
     45          8           0        5.720367   -0.477929    1.818625
     46          6           0        5.086101   -0.001786    0.600908
     47          6           0        3.837883   -0.848037    0.357307
     48          6           0        4.131238   -2.341117    0.359550
     49          8           0        3.205931   -0.399107   -0.846038
     50          1           0        8.464886   -0.383764    5.250550
     51          1           0        7.929916    1.225784    4.522837
     52          1           0        7.656667   -1.574730    3.248371
     53          1           0        7.651323    0.102491    1.260572
     54          1           0        6.810839    1.255575    2.326306
     55          1           0        5.769257   -0.099023   -0.254777
     56          1           0        4.794501    1.052313    0.705538
     57          1           0        3.161082   -0.703018    1.219648
     58          1           0        3.237853   -2.931740    0.166554
     59          1           0        4.641100   -2.647484    1.270238
     60          7           0        2.078305   -1.241108   -4.506066
     61          6           0        1.162410   -0.145063   -3.860536
     62          6           0        1.122788    1.221754   -4.542932
     63          1           0        1.485757   -0.041573   -2.824597
     64          1           0        0.159459   -0.579192   -3.832460
     65          1           0        0.519367    1.856663   -3.884261
     66          1           0        2.101632    1.695095   -4.655400
     67          1           0        0.629234    1.200741   -5.519997
     68          6           0        2.018009   -1.118953   -6.031949
     69          6           0        2.879472   -2.104708   -6.822716
     70          1           0        2.313150   -0.098823   -6.273219
     71          1           0        0.961250   -1.231467   -6.291926
     72          1           0        2.774003   -1.862965   -7.886316
     73          1           0        3.941358   -2.024511   -6.573657
     74          1           0        2.570206   -3.145194   -6.697545
     75          6           0        1.489467   -2.625292   -4.115008
     76          6           0        1.628565   -2.996332   -2.641581
     77          1           0        2.005583   -3.360648   -4.734557
     78          1           0        0.433512   -2.582104   -4.389773
     79          1           0        0.972615   -3.853303   -2.455375
     80          1           0        2.651362   -3.273706   -2.376148
     81          1           0        1.306074   -2.192230   -1.979759
     82          6           0        3.517931   -1.161005   -3.961578
     83          6           0        4.343784    0.043178   -4.406006
     84          1           0        4.003380   -2.093298   -4.261166
     85          1           0        3.436261   -1.145673   -2.870045
     86          1           0        5.352177   -0.094734   -4.000742
     87          1           0        4.436047    0.144822   -5.492429
     88          1           0        3.958534    0.977163   -3.992277
     89         35           0        5.421515   -2.909714   -1.132824
     90          6           0       -1.590483   -2.491479   -2.146948
     91          8           0       -1.435541   -1.847473   -3.202288
     92          8           0       -1.844619   -3.655101   -1.794543
 ---------------------------------------------------------------------
 Rotational constants (GHZ):           0.0643871           0.0365273           0.0318788
 General basis read from cards:  (5D, 7F)
 ======================================================================================================
                                       Pseudopotential Parameters
 ======================================================================================================
  Center     Atomic      Valence      Angular      Power
  Number     Number     Electrons     Momentum     of R      Exponent        Coefficient   SO-Coeffient
 ======================================================================================================
    1         30           12
                                      F and up 
                                                     1      386.7379660      -18.00000000    0.00000000
                                                     2       72.8587359     -124.35274030    0.00000000
                                                     2       15.9066170      -30.66018220    0.00000000
                                                     2        4.3502340      -10.63589890    0.00000000
                                                     2        1.2842199       -0.76836230    0.00000000
                                      S - F
                                                     0       19.0867858        3.00000000    0.00000000
                                                     1        5.0231080       22.52342250    0.00000000
                                                     2        1.2701744       48.44659420    0.00000000
                                                     2        1.0671287      -44.55601190    0.00000000
                                                     2        0.9264190       12.99839580    0.00000000
                                      P - F
                                                     0       43.4927750        5.00000000    0.00000000
                                                     1       20.8692669       20.74355890    0.00000000
                                                     2       21.7118378       90.30271580    0.00000000
                                                     2        6.3616915       74.66103160    0.00000000
                                                     2        1.2291195        9.88944240    0.00000000
                                      D - F
                                                     2       13.5851800       -4.84903590    0.00000000
                                                     2        9.8373050        3.69133790    0.00000000
                                                     2        0.8373113       -0.50373190    0.00000000
    2          8
                                   No pseudopotential on this center.
    3          8
                                   No pseudopotential on this center.
    4          8
                                   No pseudopotential on this center.
    5          8
                                   No pseudopotential on this center.
    6          6
                                   No pseudopotential on this center.
    7         30           12
                                      F and up 
                                                     1      386.7379660      -18.00000000    0.00000000
                                                     2       72.8587359     -124.35274030    0.00000000
                                                     2       15.9066170      -30.66018220    0.00000000
                                                     2        4.3502340      -10.63589890    0.00000000
                                                     2        1.2842199       -0.76836230    0.00000000
                                      S - F
                                                     0       19.0867858        3.00000000    0.00000000
                                                     1        5.0231080       22.52342250    0.00000000
                                                     2        1.2701744       48.44659420    0.00000000
                                                     2        1.0671287      -44.55601190    0.00000000
                                                     2        0.9264190       12.99839580    0.00000000
                                      P - F
                                                     0       43.4927750        5.00000000    0.00000000
                                                     1       20.8692669       20.74355890    0.00000000
                                                     2       21.7118378       90.30271580    0.00000000
                                                     2        6.3616915       74.66103160    0.00000000
                                                     2        1.2291195        9.88944240    0.00000000
                                      D - F
                                                     2       13.5851800       -4.84903590    0.00000000
                                                     2        9.8373050        3.69133790    0.00000000
                                                     2        0.8373113       -0.50373190    0.00000000
    8          8
                                   No pseudopotential on this center.
    9          8
                                   No pseudopotential on this center.
   10          8
                                   No pseudopotential on this center.
   11          8
                                   No pseudopotential on this center.
   12          6
                                   No pseudopotential on this center.
   13          6
                                   No pseudopotential on this center.
   14          1
                                   No pseudopotential on this center.
   15          1
                                   No pseudopotential on this center.
   16          1
                                   No pseudopotential on this center.
   17          6
                                   No pseudopotential on this center.
   18          6
                                   No pseudopotential on this center.
   19          6
                                   No pseudopotential on this center.
   20          6
                                   No pseudopotential on this center.
   21          6
                                   No pseudopotential on this center.
   22          7
                                   No pseudopotential on this center.
   23          1
                                   No pseudopotential on this center.
   24          1
                                   No pseudopotential on this center.
   25          1
                                   No pseudopotential on this center.
   26          1
                                   No pseudopotential on this center.
   27          1
                                   No pseudopotential on this center.
   28          6
                                   No pseudopotential on this center.
   29          6
                                   No pseudopotential on this center.
   30          6
                                   No pseudopotential on this center.
   31          6
                                   No pseudopotential on this center.
   32          6
                                   No pseudopotential on this center.
   33          7
                                   No pseudopotential on this center.
   34          1
                                   No pseudopotential on this center.
   35          1
                                   No pseudopotential on this center.
   36          1
                                   No pseudopotential on this center.
   37          1
                                   No pseudopotential on this center.
   38          1
                                   No pseudopotential on this center.
   39          1
                                   No pseudopotential on this center.
   40          1
                                   No pseudopotential on this center.
   41          1
                                   No pseudopotential on this center.
   42          6
                                   No pseudopotential on this center.
   43          6
                                   No pseudopotential on this center.
   44          6
                                   No pseudopotential on this center.
   45          8
                                   No pseudopotential on this center.
   46          6
                                   No pseudopotential on this center.
   47          6
                                   No pseudopotential on this center.
   48          6
                                   No pseudopotential on this center.
   49          8
                                   No pseudopotential on this center.
   50          1
                                   No pseudopotential on this center.
   51          1
                                   No pseudopotential on this center.
   52          1
                                   No pseudopotential on this center.
   53          1
                                   No pseudopotential on this center.
   54          1
                                   No pseudopotential on this center.
   55          1
                                   No pseudopotential on this center.
   56          1
                                   No pseudopotential on this center.
   57          1
                                   No pseudopotential on this center.
   58          1
                                   No pseudopotential on this center.
   59          1
                                   No pseudopotential on this center.
   60          7
                                   No pseudopotential on this center.
   61          6
                                   No pseudopotential on this center.
   62          6
                                   No pseudopotential on this center.
   63          1
                                   No pseudopotential on this center.
   64          1
                                   No pseudopotential on this center.
   65          1
                                   No pseudopotential on this center.
   66          1
                                   No pseudopotential on this center.
   67          1
                                   No pseudopotential on this center.
   68          6
                                   No pseudopotential on this center.
   69          6
                                   No pseudopotential on this center.
   70          1
                                   No pseudopotential on this center.
   71          1
                                   No pseudopotential on this center.
   72          1
                                   No pseudopotential on this center.
   73          1
                                   No pseudopotential on this center.
   74          1
                                   No pseudopotential on this center.
   75          6
                                   No pseudopotential on this center.
   76          6
                                   No pseudopotential on this center.
   77          1
                                   No pseudopotential on this center.
   78          1
                                   No pseudopotential on this center.
   79          1
                                   No pseudopotential on this center.
   80          1
                                   No pseudopotential on this center.
   81          1
                                   No pseudopotential on this center.
   82          6
                                   No pseudopotential on this center.
   83          6
                                   No pseudopotential on this center.
   84          1
                                   No pseudopotential on this center.
   85          1
                                   No pseudopotential on this center.
   86          1
                                   No pseudopotential on this center.
   87          1
                                   No pseudopotential on this center.
   88          1
                                   No pseudopotential on this center.
   89         35
                                   No pseudopotential on this center.
   90          6
                                   No pseudopotential on this center.
   91          8
                                   No pseudopotential on this center.
   92          8
                                   No pseudopotential on this center.
 ======================================================================================================
  1072 basis functions,  1863 primitive gaussians,  1121 cartesian basis functions
   195 alpha electrons      195 beta electrons
       nuclear repulsion energy      7648.7657908560 Hartrees.
 NAtoms=   92 NActive=   92 NUniq=   92 SFac= 1.00D+00 NAtFMM=   60 NAOKFM=T Big=T
 Integral buffers will be    131072 words long.
 Raffenetti 2 integral format.
 Two-electron integral symmetry is turned off.
 One-electron integrals computed using PRISM.
   1 Symmetry operations used in ECPInt.
 ECPInt:  NShTT=   71631 NPrTT=  319784 LenC2=   53478 LenP2D=  136650.
 LDataN:  DoStor=T MaxTD1= 5 Len=  102
 NBasis=  1072 RedAO= T EigKep=  3.87D-06  NBF=  1072
 NBsUse=  1072 1.00D-06 EigRej= -1.00D+00 NBFU=  1072
 ExpMin= 3.50D-02 ExpMax= 5.74D+05 ExpMxC= 5.74D+03 IAcc=3 IRadAn=         5 AccDes= 0.00D+00
 Harris functional with IExCor=  402 and IRadAn=       5 diagonalized for initial guess.
 HarFok:  IExCor=  402 AccDes= 0.00D+00 IRadAn=         5 IDoV= 1 UseB2=F ITyADJ=14
 ICtDFT=  3500011 ScaDFX=  1.000000  1.000000  1.000000  1.000000
 FoFCou: FMM=F IPFlag=           0 FMFlag=      100000 FMFlg1=        2001
         NFxFlg=           0 DoJE=T BraDBF=F KetDBF=T FulRan=T
         wScrn=  0.000000 ICntrl=       500 IOpCl=  0 I1Cent=   200000004 NGrid=           0
         NMat0=    1 NMatS0=      1 NMatT0=    0 NMatD0=    1 NMtDS0=    0 NMtDT0=    0
 Symmetry not used in FoFCou.
 Gradient too large for Newton-Raphson -- use scaled steepest descent instead.
     Accept linear search using points  2 and  3.
 Gradient too large for Newton-Raphson -- use scaled steepest descent instead.
     Accept linear search using points  2 and  3.
 Gradient too large for Newton-Raphson -- use scaled steepest descent instead.
 Gradient too large for Newton-Raphson -- use scaled steepest descent instead.
     Accept linear search using points  1 and  2.
 Gradient too large for Newton-Raphson -- use scaled steepest descent instead.
     Accept linear search using points  2 and  3.
 Gradient too large for Newton-Raphson -- use scaled steepest descent instead.
     Accept linear search using points  1 and  2.
 LinEq1:  Iter=  0 NonCon=     1 RMS=7.64D-06 Max=3.89D-04 NDo=     1
 AX will form     1 AO Fock derivatives at one time.
 LinEq1:  Iter=  1 NonCon=     1 RMS=5.96D-06 Max=3.16D-04 NDo=     1
 LinEq1:  Iter=  2 NonCon=     1 RMS=2.08D-06 Max=1.71D-04 NDo=     1
 LinEq1:  Iter=  3 NonCon=     1 RMS=1.95D-06 Max=1.02D-04 NDo=     1
 LinEq1:  Iter=  4 NonCon=     1 RMS=8.97D-07 Max=5.01D-05 NDo=     1
 LinEq1:  Iter=  5 NonCon=     1 RMS=6.89D-07 Max=5.01D-05 NDo=     1
 LinEq1:  Iter=  6 NonCon=     1 RMS=4.52D-07 Max=2.81D-05 NDo=     1
 LinEq1:  Iter=  7 NonCon=     1 RMS=3.36D-07 Max=3.48D-05 NDo=     1
 LinEq1:  Iter=  8 NonCon=     1 RMS=2.32D-07 Max=1.21D-05 NDo=     1
 LinEq1:  Iter=  9 NonCon=     1 RMS=1.47D-07 Max=1.49D-05 NDo=     1
 LinEq1:  Iter= 10 NonCon=     1 RMS=1.01D-07 Max=5.97D-06 NDo=     1
 LinEq1:  Iter= 11 NonCon=     1 RMS=5.47D-08 Max=4.05D-06 NDo=     1
 LinEq1:  Iter= 12 NonCon=     1 RMS=4.01D-08 Max=2.49D-06 NDo=     1
 LinEq1:  Iter= 13 NonCon=     1 RMS=2.83D-08 Max=1.41D-06 NDo=     1
 LinEq1:  Iter= 14 NonCon=     1 RMS=2.06D-08 Max=1.93D-06 NDo=     1
 LinEq1:  Iter= 15 NonCon=     1 RMS=1.25D-08 Max=1.21D-06 NDo=     1
 LinEq1:  Iter= 16 NonCon=     1 RMS=8.36D-09 Max=8.69D-07 NDo=     1
 LinEq1:  Iter= 17 NonCon=     0 RMS=5.18D-09 Max=4.81D-07 NDo=     1
 Linear equations converged to 5.848D-08 5.848D-07 after    17 iterations.
     Accept linear search using points  1 and  2.
     Minimum is close to point  2 DX= -1.68D-04 DF=  0.00D+00 DXR=  1.68D-04 DFR=  0.00D+00 which will be used.
 SCF Done:  E(RB3LYP) =  -4864.55794378     a.u. after    8 cycles
            Convg  =    0.1768D-05                    35 Fock formations.
              S**2 =  0.0000                  -V/T =  1.9833
 DoSCS=F DFT=T ScalE2(SS,OS)=  1.000000  1.000000
 Range of M.O.s used for correlation:     1  1072
 NBasis=  1072 NAE=   195 NBE=   195 NFC=     0 NFV=     0
 NROrb=   1072 NOA=   195 NOB=   195 NVA=   877 NVB=   877

 **** Warning!!: The largest alpha MO coefficient is  0.67476084D+02

 PrsmSu:  requested number of processors reduced to:  47 ShMem   1 Linda.
   1 Symmetry operations used in ECPInt.
 ECPInt:  NShTT=   71631 NPrTT=  319784 LenC2=   53478 LenP2D=  136650.
 LDataN:  DoStor=T MaxTD1= 6 Len=  172
 Number of processors reduced to   6 by ecpmxn.
 Symmetrizing basis deriv contribution to polar:
 IMax=3 JMax=2 DiffMx= 0.00D+00
 G2DrvN: will do    47 centers at a time, making    2 passes.
 Calling FoFCou, ICntrl=  3107 FMM=T I1Cent=   0 AccDes= 0.00D+00.
 Calling FoFCou, ICntrl=  3107 FMM=T I1Cent=   0 AccDes= 0.00D+00.
 End of G2Drv F.D. properties file   721 does not exist.
 End of G2Drv F.D. properties file   722 does not exist.
 End of G2Drv F.D. properties file   788 does not exist.
          IDoAtm=11100010000000000000000000000000000000111111111111
          IDoAtm=111111111111111111111111111111111111111111
          Differentiating once with respect to electric field.
                with respect to dipole field.
          Differentiating once with respect to nuclear coordinates.
 CalDSu exits because no D1Ps are significant.
          There are   177 degrees of freedom in the 1st order CPHF.  IDoFFX=6 NUNeed=     3.
    177 vectors produced by pass  0 Test12= 1.71D-13 1.00D-09 XBig12= 3.95D+02 6.10D+00.
 AX will form    96 AO Fock derivatives at one time.
    177 vectors produced by pass  1 Test12= 1.71D-13 1.00D-09 XBig12= 1.53D+02 4.32D+00.
    177 vectors produced by pass  2 Test12= 1.71D-13 1.00D-09 XBig12= 1.52D+01 4.31D-01.
    177 vectors produced by pass  3 Test12= 1.71D-13 1.00D-09 XBig12= 3.18D-01 6.03D-02.
    177 vectors produced by pass  4 Test12= 1.71D-13 1.00D-09 XBig12= 3.69D-03 1.09D-02.
    163 vectors produced by pass  5 Test12= 1.71D-13 1.00D-09 XBig12= 3.21D-05 1.55D-03.
     58 vectors produced by pass  6 Test12= 1.71D-13 1.00D-09 XBig12= 1.34D-07 6.91D-05.
     15 vectors produced by pass  7 Test12= 1.71D-13 1.00D-09 XBig12= 3.26D-10 1.36D-06.
      5 vectors produced by pass  8 Test12= 1.71D-13 1.00D-09 XBig12= 9.00D-13 9.00D-08.
      3 vectors produced by pass  9 Test12= 1.71D-13 1.00D-09 XBig12= 3.74D-15 7.36D-09.
 InvSVY:  IOpt=1 It=  1 EMax= 1.42D-14
 Solved reduced A of dimension  1129 with   177 vectors.
 Isotropic polarizability for W=    0.000000      464.60 Bohr**3.
 End of Minotr F.D. properties file   721 does not exist.
 End of Minotr F.D. properties file   722 does not exist.
 End of Minotr F.D. properties file   788 does not exist.

 **********************************************************************

            Population analysis using the SCF Density.

 **********************************************************************

 Alpha  occ. eigenvalues -- -482.65706 -61.74089 -56.31045 -56.30731 -56.30721
 Alpha  occ. eigenvalues --  -19.15072 -19.14706 -19.12245 -19.12238 -19.12203
 Alpha  occ. eigenvalues --  -19.12198 -19.12168 -19.11955 -19.09987 -19.09923
 Alpha  occ. eigenvalues --  -19.09653 -19.07573 -14.45945 -14.38005 -14.37574
 Alpha  occ. eigenvalues --  -10.30690 -10.28875 -10.28868 -10.28738 -10.26208
 Alpha  occ. eigenvalues --  -10.25092 -10.24740 -10.24630 -10.24531 -10.24066
 Alpha  occ. eigenvalues --  -10.24017 -10.23751 -10.23726 -10.23110 -10.23057
 Alpha  occ. eigenvalues --  -10.22860 -10.22504 -10.22458 -10.22449 -10.22339
 Alpha  occ. eigenvalues --  -10.21902 -10.21844 -10.21816 -10.20437 -10.19480
 Alpha  occ. eigenvalues --  -10.18823 -10.18717 -10.17772  -8.51057  -6.52586
 Alpha  occ. eigenvalues --   -6.51464  -6.51447  -2.64552  -2.64245  -2.64231
 Alpha  occ. eigenvalues --   -2.63337  -2.63337  -1.04607  -1.04214  -1.04026
 Alpha  occ. eigenvalues --   -1.03862  -1.01890  -1.00060  -0.97271  -0.96849
 Alpha  occ. eigenvalues --   -0.96798  -0.96354  -0.96171  -0.95965  -0.95756
 Alpha  occ. eigenvalues --   -0.95123  -0.90363  -0.82897  -0.82296  -0.80623
 Alpha  occ. eigenvalues --   -0.79687  -0.79303  -0.78683  -0.78445  -0.78163
 Alpha  occ. eigenvalues --   -0.78058  -0.74465  -0.72792  -0.68194  -0.68071
 Alpha  occ. eigenvalues --   -0.65803  -0.65688  -0.65329  -0.65292  -0.65025
 Alpha  occ. eigenvalues --   -0.64853  -0.64807  -0.60799  -0.59963  -0.58903
 Alpha  occ. eigenvalues --   -0.58792  -0.58626  -0.58542  -0.58436  -0.58078
 Alpha  occ. eigenvalues --   -0.57878  -0.57516  -0.57327  -0.57112  -0.56980
 Alpha  occ. eigenvalues --   -0.56249  -0.55990  -0.54966  -0.54525  -0.54047
 Alpha  occ. eigenvalues --   -0.52706  -0.52409  -0.52294  -0.50954  -0.50488
 Alpha  occ. eigenvalues --   -0.50451  -0.49992  -0.49442  -0.49148  -0.48688
 Alpha  occ. eigenvalues --   -0.48423  -0.47884  -0.47389  -0.46769  -0.46648
 Alpha  occ. eigenvalues --   -0.46537  -0.46235  -0.45693  -0.45435  -0.45243
 Alpha  occ. eigenvalues --   -0.44994  -0.44890  -0.44236  -0.44113  -0.43976
 Alpha  occ. eigenvalues --   -0.43633  -0.43324  -0.43129  -0.43002  -0.42390
 Alpha  occ. eigenvalues --   -0.42347  -0.42008  -0.41911  -0.41702  -0.41334
 Alpha  occ. eigenvalues --   -0.41113  -0.41072  -0.40666  -0.40200  -0.40130
 Alpha  occ. eigenvalues --   -0.39975  -0.39648  -0.39332  -0.38797  -0.38713
 Alpha  occ. eigenvalues --   -0.38589  -0.38446  -0.38337  -0.38277  -0.37734
 Alpha  occ. eigenvalues --   -0.37497  -0.36722  -0.36459  -0.35819  -0.35577
 Alpha  occ. eigenvalues --   -0.34982  -0.34796  -0.33889  -0.32987  -0.32480
 Alpha  occ. eigenvalues --   -0.31813  -0.31343  -0.31230  -0.30139  -0.29613
 Alpha  occ. eigenvalues --   -0.29008  -0.28751  -0.28171  -0.28122  -0.27760
 Alpha  occ. eigenvalues --   -0.27648  -0.27545  -0.27181  -0.27122  -0.26931
 Alpha  occ. eigenvalues --   -0.26538  -0.26338  -0.26221  -0.25840  -0.25188
 Alpha  occ. eigenvalues --   -0.24905  -0.24739  -0.24313  -0.24077  -0.23358
 Alpha virt. eigenvalues --   -0.06525  -0.05893  -0.04332  -0.03687  -0.02362
 Alpha virt. eigenvalues --   -0.01578  -0.00957  -0.00755  -0.00045   0.00276
 Alpha virt. eigenvalues --    0.00538   0.01236   0.01368   0.01803   0.01840
 Alpha virt. eigenvalues --    0.02084   0.02345   0.02605   0.02700   0.02737
 Alpha virt. eigenvalues --    0.02856   0.03085   0.03300   0.03468   0.03510
 Alpha virt. eigenvalues --    0.03777   0.03992   0.04302   0.04496   0.04764
 Alpha virt. eigenvalues --    0.04998   0.05244   0.05340   0.05697   0.05746
 Alpha virt. eigenvalues --    0.05961   0.06159   0.06285   0.06410   0.06665
 Alpha virt. eigenvalues --    0.06755   0.06922   0.07082   0.07197   0.07540
 Alpha virt. eigenvalues --    0.07700   0.07933   0.08083   0.08284   0.08332
 Alpha virt. eigenvalues --    0.08512   0.08870   0.08992   0.09051   0.09366
 Alpha virt. eigenvalues --    0.09529   0.09673   0.09720   0.09910   0.10087
 Alpha virt. eigenvalues --    0.10244   0.10416   0.10637   0.10662   0.10942
 Alpha virt. eigenvalues --    0.11004   0.11388   0.11541   0.11726   0.12040
 Alpha virt. eigenvalues --    0.12232   0.12340   0.12455   0.12610   0.12709
 Alpha virt. eigenvalues --    0.12938   0.13149   0.13340   0.13457   0.13590
 Alpha virt. eigenvalues --    0.13865   0.13901   0.14099   0.14403   0.14531
 Alpha virt. eigenvalues --    0.14764   0.14805   0.15049   0.15163   0.15378
 Alpha virt. eigenvalues --    0.15547   0.15804   0.15838   0.16083   0.16222
 Alpha virt. eigenvalues --    0.16421   0.16770   0.16922   0.17025   0.17289
 Alpha virt. eigenvalues --    0.17306   0.17403   0.17524   0.17660   0.17818
 Alpha virt. eigenvalues --    0.17919   0.18016   0.18129   0.18434   0.18525
 Alpha virt. eigenvalues --    0.18618   0.18709   0.19126   0.19203   0.19358
 Alpha virt. eigenvalues --    0.19594   0.19715   0.19806   0.20102   0.20213
 Alpha virt. eigenvalues --    0.20467   0.20589   0.20731   0.20789   0.20986
 Alpha virt. eigenvalues --    0.21300   0.21373   0.21534   0.21678   0.21765
 Alpha virt. eigenvalues --    0.21916   0.22108   0.22147   0.22302   0.22623
 Alpha virt. eigenvalues --    0.22700   0.23054   0.23216   0.23335   0.23410
 Alpha virt. eigenvalues --    0.23493   0.23593   0.24080   0.24148   0.24267
 Alpha virt. eigenvalues --    0.24416   0.24721   0.24861   0.25163   0.25278
 Alpha virt. eigenvalues --    0.25320   0.25463   0.25745   0.25967   0.26068
 Alpha virt. eigenvalues --    0.26220   0.26379   0.26500   0.26650   0.26772
 Alpha virt. eigenvalues --    0.26904   0.26947   0.27221   0.27337   0.27420
 Alpha virt. eigenvalues --    0.27523   0.27721   0.28017   0.28141   0.28479
 Alpha virt. eigenvalues --    0.28678   0.28788   0.29053   0.29173   0.29269
 Alpha virt. eigenvalues --    0.29311   0.29611   0.29820   0.30026   0.30310
 Alpha virt. eigenvalues --    0.30493   0.30726   0.30996   0.31202   0.31482
 Alpha virt. eigenvalues --    0.31666   0.31783   0.32024   0.32159   0.32467
 Alpha virt. eigenvalues --    0.32650   0.33038   0.33178   0.33580   0.33614
 Alpha virt. eigenvalues --    0.33859   0.34036   0.34195   0.34322   0.34730
 Alpha virt. eigenvalues --    0.34861   0.35013   0.35332   0.35517   0.35859
 Alpha virt. eigenvalues --    0.36178   0.36259   0.36455   0.36814   0.36873
 Alpha virt. eigenvalues --    0.37301   0.37334   0.37575   0.37723   0.37851
 Alpha virt. eigenvalues --    0.38204   0.38329   0.38562   0.38847   0.39112
 Alpha virt. eigenvalues --    0.39269   0.39673   0.39813   0.40086   0.40334
 Alpha virt. eigenvalues --    0.40592   0.40678   0.40983   0.41237   0.41418
 Alpha virt. eigenvalues --    0.41748   0.42104   0.42759   0.43034   0.43348
 Alpha virt. eigenvalues --    0.43687   0.43827   0.44073   0.44190   0.44616
 Alpha virt. eigenvalues --    0.44941   0.45122   0.45360   0.45748   0.46030
 Alpha virt. eigenvalues --    0.46303   0.46596   0.46817   0.47157   0.47546
 Alpha virt. eigenvalues --    0.47790   0.48130   0.48456   0.48659   0.49096
 Alpha virt. eigenvalues --    0.49471   0.49633   0.49978   0.50498   0.50936
 Alpha virt. eigenvalues --    0.51400   0.51799   0.52167   0.52486   0.53104
 Alpha virt. eigenvalues --    0.53368   0.53592   0.53813   0.54474   0.54597
 Alpha virt. eigenvalues --    0.55131   0.55429   0.56118   0.56214   0.56531
 Alpha virt. eigenvalues --    0.57202   0.57671   0.57917   0.58540   0.59107
 Alpha virt. eigenvalues --    0.59173   0.59827   0.60955   0.61496   0.62024
 Alpha virt. eigenvalues --    0.62324   0.63150   0.64194   0.64327   0.65500
 Alpha virt. eigenvalues --    0.66031   0.66330   0.66651   0.67253   0.67527
 Alpha virt. eigenvalues --    0.67852   0.67956   0.68344   0.68755   0.69474
 Alpha virt. eigenvalues --    0.69756   0.69983   0.70133   0.70736   0.71230
 Alpha virt. eigenvalues --    0.71977   0.72183   0.72486   0.72673   0.72934
 Alpha virt. eigenvalues --    0.72991   0.73326   0.73863   0.74234   0.74712
 Alpha virt. eigenvalues --    0.74921   0.75360   0.76013   0.76366   0.76578
 Alpha virt. eigenvalues --    0.77141   0.77802   0.77975   0.78246   0.78670
 Alpha virt. eigenvalues --    0.79160   0.79715   0.80014   0.80744   0.81248
 Alpha virt. eigenvalues --    0.81548   0.82281   0.82661   0.82951   0.83612
 Alpha virt. eigenvalues --    0.84005   0.84507   0.84915   0.85955   0.86099
 Alpha virt. eigenvalues --    0.86876   0.87043   0.87213   0.88007   0.88625
 Alpha virt. eigenvalues --    0.88758   0.89297   0.89733   0.90085   0.90220
 Alpha virt. eigenvalues --    0.90722   0.90966   0.91245   0.91609   0.91671
 Alpha virt. eigenvalues --    0.92214   0.92430   0.92620   0.93097   0.93463
 Alpha virt. eigenvalues --    0.94101   0.94211   0.94630   0.95273   0.95477
 Alpha virt. eigenvalues --    0.96105   0.96471   0.96623   0.96795   0.97291
 Alpha virt. eigenvalues --    0.97718   0.98514   0.98825   0.99126   0.99335
 Alpha virt. eigenvalues --    0.99682   1.00163   1.00343   1.00709   1.01109
 Alpha virt. eigenvalues --    1.01527   1.01756   1.02311   1.02556   1.03387
 Alpha virt. eigenvalues --    1.03650   1.03952   1.04549   1.05049   1.05089
 Alpha virt. eigenvalues --    1.05302   1.05446   1.06066   1.06573   1.07078
 Alpha virt. eigenvalues --    1.07479   1.07624   1.07828   1.08357   1.08875
 Alpha virt. eigenvalues --    1.09100   1.09535   1.10411   1.10938   1.11318
 Alpha virt. eigenvalues --    1.12133   1.12356   1.12842   1.13216   1.13728
 Alpha virt. eigenvalues --    1.14271   1.14427   1.14908   1.15245   1.15325
 Alpha virt. eigenvalues --    1.15646   1.15862   1.16529   1.16666   1.17396
 Alpha virt. eigenvalues --    1.17611   1.17972   1.18122   1.18504   1.18686
 Alpha virt. eigenvalues --    1.19170   1.19720   1.20505   1.20596   1.21031
 Alpha virt. eigenvalues --    1.21654   1.21868   1.22529   1.22838   1.22949
 Alpha virt. eigenvalues --    1.23237   1.24785   1.25127   1.25416   1.25862
 Alpha virt. eigenvalues --    1.25979   1.26719   1.27009   1.27680   1.28432
 Alpha virt. eigenvalues --    1.28685   1.29206   1.29446   1.30559   1.30720
 Alpha virt. eigenvalues --    1.31262   1.31752   1.32109   1.32349   1.32796
 Alpha virt. eigenvalues --    1.33124   1.33328   1.34511   1.34790   1.35819
 Alpha virt. eigenvalues --    1.36194   1.36503   1.36955   1.37211   1.37504
 Alpha virt. eigenvalues --    1.37605   1.37802   1.38204   1.38820   1.39016
 Alpha virt. eigenvalues --    1.39324   1.39690   1.40008   1.40575   1.40762
 Alpha virt. eigenvalues --    1.40853   1.41316   1.41570   1.42132   1.42501
 Alpha virt. eigenvalues --    1.42851   1.43820   1.44048   1.44183   1.44673
 Alpha virt. eigenvalues --    1.44872   1.45528   1.45741   1.46583   1.46742
 Alpha virt. eigenvalues --    1.47066   1.48044   1.48460   1.48675   1.49830
 Alpha virt. eigenvalues --    1.49958   1.50491   1.50727   1.50836   1.51526
 Alpha virt. eigenvalues --    1.51925   1.52194   1.52878   1.53526   1.53832
 Alpha virt. eigenvalues --    1.54601   1.54861   1.55496   1.55965   1.56725
 Alpha virt. eigenvalues --    1.57307   1.58349   1.58487   1.59007   1.60124
 Alpha virt. eigenvalues --    1.60551   1.60744   1.61712   1.61998   1.62817
 Alpha virt. eigenvalues --    1.63039   1.63484   1.63873   1.64559   1.64860
 Alpha virt. eigenvalues --    1.65449   1.65799   1.66288   1.67512   1.67628
 Alpha virt. eigenvalues --    1.68119   1.68373   1.69601   1.69866   1.70382
 Alpha virt. eigenvalues --    1.71118   1.71840   1.72297   1.72543   1.73498
 Alpha virt. eigenvalues --    1.73971   1.75189   1.75454   1.76340   1.76578
 Alpha virt. eigenvalues --    1.77049   1.78167   1.79379   1.79826   1.79921
 Alpha virt. eigenvalues --    1.80440   1.80710   1.81269   1.81425   1.81835
 Alpha virt. eigenvalues --    1.82182   1.82748   1.83337   1.83450   1.83941
 Alpha virt. eigenvalues --    1.84339   1.84855   1.84972   1.85043   1.85537
 Alpha virt. eigenvalues --    1.86134   1.86932   1.87409   1.87632   1.87991
 Alpha virt. eigenvalues --    1.88125   1.88654   1.89079   1.89329   1.90235
 Alpha virt. eigenvalues --    1.90543   1.91018   1.91066   1.91961   1.92237
 Alpha virt. eigenvalues --    1.92713   1.92849   1.93226   1.93376   1.93664
 Alpha virt. eigenvalues --    1.94060   1.94516   1.94767   1.95271   1.95543
 Alpha virt. eigenvalues --    1.95667   1.95760   1.96059   1.96322   1.96410
 Alpha virt. eigenvalues --    1.96710   1.97092   1.97476   1.97645   1.97840
 Alpha virt. eigenvalues --    1.97853   1.98631   1.98847   1.99002   1.99301
 Alpha virt. eigenvalues --    1.99481   2.00218   2.00504   2.00625   2.01080
 Alpha virt. eigenvalues --    2.01548   2.01721   2.02346   2.02739   2.03078
 Alpha virt. eigenvalues --    2.03529   2.04158   2.04286   2.04504   2.04830
 Alpha virt. eigenvalues --    2.05481   2.06050   2.06877   2.07121   2.07621
 Alpha virt. eigenvalues --    2.07879   2.08033   2.08578   2.08998   2.10195
 Alpha virt. eigenvalues --    2.10696   2.10920   2.11145   2.11326   2.11627
 Alpha virt. eigenvalues --    2.11868   2.11970   2.12691   2.12735   2.13073
 Alpha virt. eigenvalues --    2.13555   2.13642   2.13704   2.14086   2.14626
 Alpha virt. eigenvalues --    2.15283   2.15642   2.16193   2.16347   2.16927
 Alpha virt. eigenvalues --    2.17661   2.17781   2.18653   2.19637   2.19963
 Alpha virt. eigenvalues --    2.21045   2.21803   2.22161   2.22525   2.23051
 Alpha virt. eigenvalues --    2.23553   2.24234   2.24590   2.25058   2.25714
 Alpha virt. eigenvalues --    2.25989   2.26466   2.26706   2.27414   2.27600
 Alpha virt. eigenvalues --    2.27928   2.27971   2.28255   2.28996   2.29038
 Alpha virt. eigenvalues --    2.29280   2.29696   2.30434   2.30853   2.31581
 Alpha virt. eigenvalues --    2.32840   2.33435   2.33696   2.34047   2.35067
 Alpha virt. eigenvalues --    2.35260   2.35349   2.35813   2.35901   2.36121
 Alpha virt. eigenvalues --    2.36264   2.36490   2.37431   2.38558   2.38743
 Alpha virt. eigenvalues --    2.39106   2.40258   2.40323   2.41519   2.42674
 Alpha virt. eigenvalues --    2.42753   2.44071   2.44658   2.45088   2.45392
 Alpha virt. eigenvalues --    2.45896   2.46641   2.47763   2.48261   2.49209
 Alpha virt. eigenvalues --    2.49434   2.50584   2.51168   2.51352   2.51594
 Alpha virt. eigenvalues --    2.51888   2.52228   2.52804   2.53113   2.53145
 Alpha virt. eigenvalues --    2.53526   2.54166   2.54298   2.55058   2.55390
 Alpha virt. eigenvalues --    2.56175   2.56393   2.56747   2.56988   2.57591
 Alpha virt. eigenvalues --    2.58143   2.58401   2.58686   2.59139   2.60654
 Alpha virt. eigenvalues --    2.61332   2.61994   2.63479   2.63750   2.64322
 Alpha virt. eigenvalues --    2.64362   2.64387   2.65457   2.66241   2.66881
 Alpha virt. eigenvalues --    2.67892   2.68354   2.68740   2.69187   2.69369
 Alpha virt. eigenvalues --    2.69974   2.70321   2.70631   2.70763   2.70982
 Alpha virt. eigenvalues --    2.71150   2.71209   2.71765   2.72278   2.72445
 Alpha virt. eigenvalues --    2.73312   2.73376   2.74575   2.74985   2.76176
 Alpha virt. eigenvalues --    2.76565   2.77182   2.77267   2.78004   2.78907
 Alpha virt. eigenvalues --    2.79971   2.80093   2.80275   2.80743   2.81025
 Alpha virt. eigenvalues --    2.81610   2.81963   2.82708   2.82851   2.83066
 Alpha virt. eigenvalues --    2.83230   2.83955   2.84141   2.84721   2.85073
 Alpha virt. eigenvalues --    2.85456   2.86315   2.86828   2.87775   2.88249
 Alpha virt. eigenvalues --    2.89771   2.90583   2.91353   2.92431   2.93535
 Alpha virt. eigenvalues --    2.94084   2.94882   2.95422   2.96327   2.96570
 Alpha virt. eigenvalues --    2.96850   2.97496   2.98562   2.99238   3.00282
 Alpha virt. eigenvalues --    3.01130   3.01419   3.02421   3.02985   3.03366
 Alpha virt. eigenvalues --    3.03725   3.04229   3.05021   3.06258   3.06415
 Alpha virt. eigenvalues --    3.07577   3.07623   3.09677   3.13891   3.17013
 Alpha virt. eigenvalues --    3.17251   3.18643   3.20240   3.23408   3.23714
 Alpha virt. eigenvalues --    3.23880   3.24159   3.24555   3.25393   3.26262
 Alpha virt. eigenvalues --    3.27524   3.27656   3.27904   3.29341   3.29711
 Alpha virt. eigenvalues --    3.30186   3.31876   3.33383   3.34370   3.34437
 Alpha virt. eigenvalues --    3.37158   3.37868   3.38845   3.40881   3.41050
 Alpha virt. eigenvalues --    3.42242   3.43850   3.44363   3.44525   3.45633
 Alpha virt. eigenvalues --    3.46057   3.46375   3.46576   3.46993   3.47857
 Alpha virt. eigenvalues --    3.48160   3.49383   3.52382   3.53121   3.53595
 Alpha virt. eigenvalues --    3.54727   3.55369   3.55824   3.56684   3.57439
 Alpha virt. eigenvalues --    3.59288   3.60742   3.61898   3.64766   3.69549
 Alpha virt. eigenvalues --    3.74318   3.88459   3.88635   3.97307   8.85742
 Alpha virt. eigenvalues --   11.53029  11.67986
          Condensed to atoms (all electrons):
 Mulliken charges:
               1
     1  Zn   0.450509
     2  O   -0.581736
     3  O   -0.898946
     4  O   -0.526288
     5  O   -0.422011
     6  C    0.444775
     7  Zn   0.546649
     8  O   -0.477849
     9  O   -0.449586
    10  O   -0.416811
    11  O   -0.453567
    12  C    0.446428
    13  C    0.532893
    14  H    0.088611
    15  H    0.089420
    16  H    0.082075
    17  C   -0.212382
    18  C   -0.107115
    19  C   -0.460235
    20  C   -0.114666
    21  C   -0.099624
    22  N    0.356525
    23  H    0.143889
    24  H    0.176172
    25  H    0.137992
    26  H    0.144229
    27  H    0.189915
    28  C   -0.197531
    29  C    0.082139
    30  C   -0.566451
    31  C    0.129535
    32  C   -0.177746
    33  N    0.172080
    34  H    0.144593
    35  H    0.187048
    36  H    0.143265
    37  H    0.143718
    38  H    0.193310
    39  H    0.450370
    40  H    0.521631
    41  H    0.402267
    42  C   -0.318372
    43  C    0.005584
    44  C   -0.090864
    45  O   -0.306732
    46  C   -0.356641
    47  C    0.098680
    48  C   -0.126531
    49  O   -0.573336
    50  H    0.137423
    51  H    0.130438
    52  H    0.140397
    53  H    0.129809
    54  H    0.117280
    55  H    0.133588
    56  H    0.119760
    57  H    0.150089
    58  H    0.170529
    59  H    0.191486
    60  N   -0.386216
    61  C   -0.467022
    62  C   -0.750534
    63  H    0.217895
    64  H    0.224377
    65  H    0.211041
    66  H    0.138283
    67  H    0.147193
    68  C    0.184422
    69  C   -0.586454
    70  H    0.181520
    71  H    0.186825
    72  H    0.161947
    73  H    0.167043
    74  H    0.163644
    75  C    0.357268
    76  C   -0.686357
    77  H    0.142381
    78  H    0.221144
    79  H    0.183242
    80  H    0.169852
    81  H    0.203912
    82  C   -0.003110
    83  C   -0.589497
    84  H    0.172855
    85  H    0.264884
    86  H    0.167286
    87  H    0.144186
    88  H    0.161503
    89  Br  -0.252990
    90  C    0.462202
    91  O   -0.463723
    92  O   -0.439083
 Sum of Mulliken charges =   0.00000
 Mulliken charges with hydrogens summed into heavy atoms:
               1
     1  Zn   0.450509
     2  O   -0.179469
     3  O   -0.448576
     4  O   -0.526288
     5  O   -0.422011
     6  C    0.533385
     7  Zn   0.546649
     8  O   -0.477849
     9  O   -0.449586
    10  O   -0.416811
    11  O   -0.453567
    12  C    0.535848
    13  C    0.614969
    17  C   -0.036210
    18  C    0.030877
    19  C   -0.316346
    20  C    0.029563
    21  C    0.090291
    22  N    0.356525
    28  C   -0.010483
    29  C    0.225404
    30  C   -0.421859
    31  C    0.273253
    32  C    0.015564
    33  N    0.172080
    42  C   -0.050512
    43  C    0.145981
    44  C    0.156225
    45  O   -0.306732
    46  C   -0.103293
    47  C    0.248769
    48  C    0.235485
    49  O   -0.051705
    60  N   -0.386216
    61  C   -0.024749
    62  C   -0.254017
    68  C    0.552768
    69  C   -0.093820
    75  C    0.720793
    76  C   -0.129351
    82  C    0.434629
    83  C   -0.116522
    89  Br  -0.252990
    90  C    0.462202
    91  O   -0.463723
    92  O   -0.439083
 Electronic spatial extent (au):  <R**2>=          37299.8389
 Charge=              0.0000 electrons
 Dipole moment (field-independent basis, Debye):
    X=              3.4702    Y=              3.4864    Z=             -5.3050  Tot=              7.2346
 Quadrupole moment (field-independent basis, Debye-Ang):
   XX=           -259.7098   YY=           -290.4644   ZZ=           -252.7846
   XY=             32.3860   XZ=            -27.5613   YZ=             -0.7042
 Traceless Quadrupole moment (field-independent basis, Debye-Ang):
   XX=              7.9432   YY=            -22.8115   ZZ=             14.8683
   XY=             32.3860   XZ=            -27.5613   YZ=             -0.7042
 Octapole moment (field-independent basis, Debye-Ang**2):
  XXX=          -1017.5443  YYY=            324.4648  ZZZ=            482.7465  XYY=           -187.5549
  XXY=             32.3389  XXZ=            233.6129  XZZ=            -98.6739  YZZ=            -29.9152
  YYZ=            327.9105  XYZ=             61.7109
 Hexadecapole moment (field-independent basis, Debye-Ang**3):
 XXXX=         -25050.8282 YYYY=          -9160.7460 ZZZZ=          -9984.0171 XXXY=           1195.3227
 XXXZ=            547.1612 YYYX=            -24.8134 YYYZ=          -1257.4436 ZZZX=           -474.3154
 ZZZY=           -911.1819 XXYY=          -5576.6746 XXZZ=          -5883.4963 YYZZ=          -3544.8086
 XXYZ=           -500.2548 YYXZ=            -31.6202 ZZXY=           -419.3666
 N-N= 7.648765790856D+03 E-N=-2.696921255614D+04  KE= 4.947112065136D+03
  Exact polarizability: 499.383  40.228 446.557   8.104  19.489 447.846
 Approx polarizability: 675.619  62.523 655.069  -2.865   7.027 646.796
   1 Symmetry operations used in ECPInt.
 ECPInt:  NShTT=   71631 NPrTT=  319784 LenC2=   53478 LenP2D=  136650.
 LDataN:  DoStor=T MaxTD1= 7 Len=  274
 Calling FoFJK, ICntrl=    100127 FMM=F ISym2X=0 I1Cent= 0 IOpClX= 0 NMat=1 NMatS=1 NMatT=0.
 -------------------------------------------------------------------
 Center     Atomic                   Forces (Hartrees/Bohr)
 Number     Number              X              Y              Z
 -------------------------------------------------------------------
      1       30           0.006270911    0.005741841    0.000415363
      2        8           0.000350979   -0.012809822   -0.006375683
      3        8          -0.003869992   -0.006185280   -0.003361841
      4        8          -0.000000000   -0.000000000   -0.000000000
      5        8          -0.000000000   -0.000000000   -0.000000000
      6        6          -0.000000000   -0.000000000   -0.000000000
      7       30          -0.008649529   -0.004340696    0.001563427
      8        8          -0.000000000   -0.000000000   -0.000000000
      9        8          -0.000000000   -0.000000000   -0.000000000
     10        8          -0.000000000   -0.000000000   -0.000000000
     11        8          -0.000000000   -0.000000000   -0.000000000
     12        6          -0.000000000   -0.000000000   -0.000000000
     13        6          -0.000000000   -0.000000000   -0.000000000
     14        1          -0.000000000   -0.000000000   -0.000000000
     15        1          -0.000000000   -0.000000000   -0.000000000
     16        1          -0.000000000   -0.000000000   -0.000000000
     17        6          -0.000000000   -0.000000000   -0.000000000
     18        6          -0.000000000   -0.000000000   -0.000000000
     19        6          -0.000000000   -0.000000000   -0.000000000
     20        6          -0.000000000   -0.000000000   -0.000000000
     21        6          -0.000000000   -0.000000000   -0.000000000
     22        7          -0.000000000   -0.000000000   -0.000000000
     23        1          -0.000000000   -0.000000000   -0.000000000
     24        1          -0.000000000   -0.000000000   -0.000000000
     25        1          -0.000000000   -0.000000000   -0.000000000
     26        1          -0.000000000   -0.000000000   -0.000000000
     27        1          -0.000000000   -0.000000000   -0.000000000
     28        6          -0.000000000   -0.000000000   -0.000000000
     29        6          -0.000000000   -0.000000000   -0.000000000
     30        6          -0.000000000   -0.000000000   -0.000000000
     31        6          -0.000000000   -0.000000000   -0.000000000
     32        6          -0.000000000   -0.000000000   -0.000000000
     33        7          -0.000000000   -0.000000000   -0.000000000
     34        1          -0.000000000   -0.000000000   -0.000000000
     35        1          -0.000000000   -0.000000000   -0.000000000
     36        1          -0.000000000   -0.000000000   -0.000000000
     37        1          -0.000000000   -0.000000000   -0.000000000
     38        1          -0.000000000   -0.000000000   -0.000000000
     39        1           0.006752185    0.007392283    0.003542269
     40        1           0.008450767   -0.004250476    0.002103476
     41        1          -0.002345439    0.003932160   -0.009438730
     42        6          -0.000664795   -0.000549910   -0.001061547
     43        6           0.000032614    0.001300508    0.000305692
     44        6          -0.013997828   -0.005480762   -0.005516127
     45        8           0.007523955    0.012365950   -0.008397143
     46        6           0.007816922   -0.004295220    0.012940882
     47        6          -0.008455922    0.006279007   -0.014484405
     48        6           0.004723517   -0.001241160   -0.007144308
     49        8           0.003076178   -0.003617843    0.014033397
     50        1           0.000228637   -0.000873587   -0.000110730
     51        1          -0.000347893    0.000374126   -0.000576985
     52        1           0.000576238   -0.000485318    0.000645944
     53        1          -0.000711464   -0.000893354    0.000567574
     54        1          -0.000742457   -0.000497485    0.000206837
     55        1           0.000781161   -0.000136782    0.000794448
     56        1           0.000296474   -0.000488206    0.000827979
     57        1          -0.000033410   -0.000837453   -0.000739105
     58        1           0.000424371   -0.000322918   -0.000051667
     59        1          -0.000160010   -0.001140170   -0.000046032
     60        7          -0.000736972   -0.000610277    0.000510885
     61        6           0.003126620   -0.002620258   -0.003507535
     62        6           0.000104791   -0.000705894    0.000381237
     63        1           0.000565059   -0.000519437   -0.001451535
     64        1           0.001461438    0.000452284   -0.000365740
     65        1           0.000287180   -0.000584228   -0.000363294
     66        1          -0.000455061   -0.000175170   -0.000017796
     67        1           0.000103313    0.000015237    0.000497079
     68        6           0.000737036   -0.001682695    0.005678159
     69        6          -0.000322432    0.000313352    0.000401025
     70        1          -0.000049949   -0.000432677    0.000108152
     71        1           0.000487178    0.000108111    0.000219177
     72        1          -0.000190171    0.000226334    0.000724535
     73        1          -0.000394697   -0.000041601   -0.000250323
     74        1           0.000119229    0.000439372   -0.000165525
     75        6           0.002668962    0.004826247    0.000319030
     76        6           0.000191681    0.000214414   -0.000643334
     77        1          -0.000256643    0.000485753    0.000309124
     78        1           0.000803416   -0.000043964   -0.000516904
     79        1           0.000566641    0.000268281   -0.000853633
     80        1          -0.000378555    0.000047650   -0.000344422
     81        1          -0.000215493   -0.000542770   -0.000447871
     82        6          -0.004515566    0.000936224   -0.002279038
     83        6          -0.000318272   -0.000591618   -0.000106097
     84        1          -0.000419388    0.000516997    0.000036765
     85        1          -0.000536418   -0.000885811   -0.001912551
     86        1          -0.000689909   -0.000253167   -0.000101909
     87        1           0.000056952   -0.000017539    0.000503055
     88        1           0.000242681   -0.000303457   -0.000304310
     89       35          -0.006313666    0.002776538    0.007812016
     90        6          -0.001174604   -0.008831490   -0.004636198
     91        8          -0.005324642   -0.015427897    0.027399663
     92        8           0.006746770    0.029000097   -0.008945419
 -------------------------------------------------------------------
 Cartesian Forces:  Max     0.029000097 RMS     0.004038771

 GradGradGradGradGradGradGradGradGradGradGradGradGradGradGradGradGradGrad
 Berny optimization.
 Search for a local minimum.
 Step number   1 out of a maximum of  286
 All quantities printed in internal units (Hartrees-Bohrs-Radians)
 Second derivative matrix not updated -- analytic derivatives used.
 ITU=  0
     Eigenvalues ---    0.00004   0.00006   0.00010   0.00012   0.00025
     Eigenvalues ---    0.00027   0.00034   0.00045   0.00061   0.00066
     Eigenvalues ---    0.00075   0.00091   0.00099   0.00109   0.00122
     Eigenvalues ---    0.00153   0.00158   0.00213   0.00231   0.00268
     Eigenvalues ---    0.00269   0.00304   0.00383   0.00414   0.00508
     Eigenvalues ---    0.00521   0.00585   0.00602   0.00671   0.00689
     Eigenvalues ---    0.00727   0.00805   0.00944   0.00960   0.01092
     Eigenvalues ---    0.01234   0.01254   0.01432   0.01474   0.01590
     Eigenvalues ---    0.01679   0.01933   0.01969   0.02141   0.02150
     Eigenvalues ---    0.02377   0.02552   0.02848   0.02995   0.03018
     Eigenvalues ---    0.03301   0.03424   0.03526   0.03574   0.03639
     Eigenvalues ---    0.03728   0.04077   0.04239   0.04349   0.04658
     Eigenvalues ---    0.05175   0.05284   0.05348   0.05483   0.05716
     Eigenvalues ---    0.05856   0.05949   0.05976   0.06116   0.06277
     Eigenvalues ---    0.06357   0.06536   0.06843   0.06920   0.07266
     Eigenvalues ---    0.07447   0.07643   0.07727   0.07869   0.08000
     Eigenvalues ---    0.08118   0.08260   0.08695   0.09655   0.09740
     Eigenvalues ---    0.09775   0.09824   0.10075   0.10193   0.10391
     Eigenvalues ---    0.10634   0.10799   0.11188   0.11343   0.11423
     Eigenvalues ---    0.11467   0.12189   0.12833   0.13258   0.13507
     Eigenvalues ---    0.13901   0.13971   0.14077   0.14204   0.14360
     Eigenvalues ---    0.14526   0.14619   0.15108   0.15621   0.16036
     Eigenvalues ---    0.16269   0.16840   0.17275   0.18190   0.19251
     Eigenvalues ---    0.20172   0.20462   0.20522   0.20815   0.21821
     Eigenvalues ---    0.22159   0.23196   0.24575   0.28858   0.30490
     Eigenvalues ---    0.31338   0.32562   0.33031   0.33530   0.35172
     Eigenvalues ---    0.35646   0.40765   0.42279   0.46905   0.47187
     Eigenvalues ---    0.49954   0.50952   0.55029   0.58162   0.60149
     Eigenvalues ---    0.61041   0.61287   0.62357   0.63606   0.67007
     Eigenvalues ---    0.70746   0.75501   0.76288   0.76688   0.78411
     Eigenvalues ---    0.78752   0.80446   0.81575   0.82704   0.82996
     Eigenvalues ---    0.83202   0.83816   0.83903   0.86323   0.86429
     Eigenvalues ---    0.86747   0.87730   0.87854   0.89382   0.92317
     Eigenvalues ---    0.93016   0.93498   0.94827   0.95704   0.95964
     Eigenvalues ---    0.98464   0.99759   1.45995   1.55405
 RFO step:  Lambda=-1.33856154D-02 EMin= 4.16474110D-05
 Linear search not attempted -- first point.
 Maximum step size (   0.300) exceeded in Quadratic search.
    -- Step size scaled by   0.750
 Variable       Old X    -DE/DX   Delta X   Delta X   Delta X     New X
                                 (Linear)    (Quad)   (Total)
    X1       -5.18660   0.00627   0.00000   0.03252   0.03252  -5.15408
    Y1       -0.14459   0.00574   0.00000   0.02732   0.02732  -0.11727
    Z1       -0.25220   0.00042   0.00000  -0.00286  -0.00286  -0.25505
    X2       -2.55904   0.00035   0.00000  -0.01844  -0.01844  -2.57748
    Y2       -2.92051  -0.01281   0.00000  -0.06891  -0.06891  -2.98942
    Z2       -1.61553  -0.00638   0.00000  -0.06069  -0.06069  -1.67622
    X3        1.60413  -0.00387   0.00000   0.02176   0.02176   1.62589
    Y3        0.42215  -0.00619   0.00000   0.00811   0.00811   0.43025
    Z3       -1.25437  -0.00336   0.00000  -0.00263  -0.00263  -1.25700
    X4       -3.66700  -0.00000   0.00000   0.00000   0.00000  -3.66700
    Y4       -1.20542  -0.00000   0.00000   0.00000   0.00000  -1.20542
    Z4        3.25893  -0.00000   0.00000   0.00000   0.00000   3.25893
    X5       -0.70429  -0.00000   0.00000   0.00000   0.00000  -0.70429
    Y5        1.91028  -0.00000   0.00000   0.00000   0.00000   1.91028
    Z5        3.62255  -0.00000   0.00000   0.00000   0.00000   3.62255
    X6       -2.01960  -0.00000   0.00000   0.00000   0.00000  -2.01960
    Y6        0.10841  -0.00000   0.00000   0.00000   0.00000   0.10841
    Z6        4.45388  -0.00000   0.00000   0.00000   0.00000   4.45388
    X7       -0.29227  -0.00865   0.00000  -0.03923  -0.03923  -0.33150
    Y7        3.48608  -0.00434   0.00000  -0.03232  -0.03232   3.45376
    Z7       -0.16988   0.00156   0.00000   0.00523   0.00523  -0.16466
    X8       -3.08040  -0.00000   0.00000   0.00000   0.00000  -3.08040
    Y8        6.08644  -0.00000   0.00000   0.00000   0.00000   6.08644
    Z8        1.02173  -0.00000   0.00000   0.00000   0.00000   1.02173
    X9       -6.32125  -0.00000   0.00000   0.00000   0.00000  -6.32125
    Y9        3.26012  -0.00000   0.00000   0.00000   0.00000   3.26012
    Z9        1.36098  -0.00000   0.00000   0.00000   0.00000   1.36098
   X10       -2.05141  -0.00000   0.00000   0.00000   0.00000  -2.05141
   Y10        3.75065  -0.00000   0.00000   0.00000   0.00000   3.75065
   Z10       -3.89425  -0.00000   0.00000   0.00000   0.00000  -3.89425
   X11       -5.65738  -0.00000   0.00000   0.00000   0.00000  -5.65738
   Y11        1.39334  -0.00000   0.00000   0.00000   0.00000   1.39334
   Z11       -3.80093  -0.00000   0.00000   0.00000   0.00000  -3.80093
   X12       -5.32107  -0.00000   0.00000   0.00000   0.00000  -5.32107
   Y12        5.42457  -0.00000   0.00000   0.00000   0.00000   5.42457
   Z12        1.58880  -0.00000   0.00000   0.00000   0.00000   1.58880
   X13       -4.06455  -0.00000   0.00000   0.00000   0.00000  -4.06455
   Y13        2.87770  -0.00000   0.00000   0.00000   0.00000   2.87770
   Z13       -4.83599  -0.00000   0.00000   0.00000   0.00000  -4.83599
   X14       -1.71602  -0.00000   0.00000   0.00000   0.00000  -1.71602
   Y14       -0.44338  -0.00000   0.00000   0.00000   0.00000  -0.44338
   Z14        6.46269  -0.00000   0.00000   0.00000   0.00000   6.46269
   X15       -6.55099  -0.00000   0.00000   0.00000   0.00000  -6.55099
   Y15        6.93289  -0.00000   0.00000   0.00000   0.00000   6.93289
   Z15        2.38283  -0.00000   0.00000   0.00000   0.00000   2.38283
   X16       -4.51509  -0.00000   0.00000   0.00000   0.00000  -4.51509
   Y16        3.47021  -0.00000   0.00000   0.00000   0.00000   3.47021
   Z16       -6.80091  -0.00000   0.00000   0.00000   0.00000  -6.80091
   X17        4.89701  -0.00000   0.00000   0.00000   0.00000   4.89701
   Y17        5.40406  -0.00000   0.00000   0.00000   0.00000   5.40406
   Z17       -1.04149  -0.00000   0.00000   0.00000   0.00000  -1.04149
   X18        7.00826  -0.00000   0.00000   0.00000   0.00000   7.00826
   Y18        7.00675  -0.00000   0.00000   0.00000   0.00000   7.00675
   Z18       -1.01544  -0.00000   0.00000   0.00000   0.00000  -1.01544
   X19        6.73884  -0.00000   0.00000   0.00000   0.00000   6.73884
   Y19        9.46134  -0.00000   0.00000   0.00000   0.00000   9.46134
   Z19       -0.03998  -0.00000   0.00000   0.00000   0.00000  -0.03998
   X20        4.36501  -0.00000   0.00000   0.00000   0.00000   4.36501
   Y20       10.23291  -0.00000   0.00000   0.00000   0.00000  10.23291
   Z20        0.86765  -0.00000   0.00000   0.00000   0.00000   0.86765
   X21        2.34497  -0.00000   0.00000   0.00000   0.00000   2.34497
   Y21        8.51926  -0.00000   0.00000   0.00000   0.00000   8.51926
   Z21        0.77554  -0.00000   0.00000   0.00000   0.00000   0.77554
   X22        2.61528  -0.00000   0.00000   0.00000   0.00000   2.61528
   Y22        6.15252  -0.00000   0.00000   0.00000   0.00000   6.15252
   Z22       -0.15606  -0.00000   0.00000   0.00000   0.00000  -0.15606
   X23        8.35087  -0.00000   0.00000   0.00000   0.00000   8.35087
   Y23       10.75330  -0.00000   0.00000   0.00000   0.00000  10.75330
   Z23        0.01090  -0.00000   0.00000   0.00000   0.00000   0.01090
   X24        4.97028  -0.00000   0.00000   0.00000   0.00000   4.97028
   Y24        3.46979  -0.00000   0.00000   0.00000   0.00000   3.46979
   Z24       -1.76621  -0.00000   0.00000   0.00000   0.00000  -1.76621
   X25        8.81639  -0.00000   0.00000   0.00000   0.00000   8.81639
   Y25        6.33064  -0.00000   0.00000   0.00000   0.00000   6.33064
   Z25       -1.74506  -0.00000   0.00000   0.00000   0.00000  -1.74506
   X26        4.07193  -0.00000   0.00000   0.00000   0.00000   4.07193
   Y26       12.12530  -0.00000   0.00000   0.00000   0.00000  12.12530
   Z26        1.63740  -0.00000   0.00000   0.00000   0.00000   1.63740
   X27        0.45209  -0.00000   0.00000   0.00000   0.00000   0.45209
   Y27        9.00184  -0.00000   0.00000   0.00000   0.00000   9.00184
   Z27        1.44468  -0.00000   0.00000   0.00000   0.00000   1.44468
   X28       -8.94747  -0.00000   0.00000   0.00000   0.00000  -8.94747
   Y28       -3.75931  -0.00000   0.00000   0.00000   0.00000  -3.75931
   Z28        1.92471  -0.00000   0.00000   0.00000   0.00000   1.92471
   X29      -11.13792  -0.00000   0.00000   0.00000   0.00000 -11.13792
   Y29       -5.24484  -0.00000   0.00000   0.00000   0.00000  -5.24484
   Z29        2.05762  -0.00000   0.00000   0.00000   0.00000   2.05762
   X30      -12.76454  -0.00000   0.00000   0.00000   0.00000 -12.76454
   Y30       -5.31626  -0.00000   0.00000   0.00000   0.00000  -5.31626
   Z30       -0.04021  -0.00000   0.00000   0.00000   0.00000  -0.04021
   X31      -12.14445  -0.00000   0.00000   0.00000   0.00000 -12.14445
   Y31       -3.89762  -0.00000   0.00000   0.00000   0.00000  -3.89762
   Z31       -2.19724  -0.00000   0.00000   0.00000   0.00000  -2.19724
   X32       -9.92068  -0.00000   0.00000   0.00000   0.00000  -9.92068
   Y32       -2.45560  -0.00000   0.00000   0.00000   0.00000  -2.45560
   Z32       -2.18360  -0.00000   0.00000   0.00000   0.00000  -2.18360
   X33       -8.35500  -0.00000   0.00000   0.00000   0.00000  -8.35500
   Y33       -2.39626  -0.00000   0.00000   0.00000   0.00000  -2.39626
   Z33       -0.15913  -0.00000   0.00000   0.00000   0.00000  -0.15913
   X34      -14.48640  -0.00000   0.00000   0.00000   0.00000 -14.48640
   Y34       -6.45744  -0.00000   0.00000   0.00000   0.00000  -6.45744
   Z34        0.00586  -0.00000   0.00000   0.00000   0.00000   0.00586
   X35       -7.60690  -0.00000   0.00000   0.00000   0.00000  -7.60690
   Y35       -3.62292  -0.00000   0.00000   0.00000   0.00000  -3.62292
   Z35        3.48999  -0.00000   0.00000   0.00000   0.00000   3.48999
   X36      -11.54815  -0.00000   0.00000   0.00000   0.00000 -11.54815
   Y36       -6.31596  -0.00000   0.00000   0.00000   0.00000  -6.31596
   Z36        3.77316  -0.00000   0.00000   0.00000   0.00000   3.77316
   X37      -13.35563  -0.00000   0.00000   0.00000   0.00000 -13.35563
   Y37       -3.89645  -0.00000   0.00000   0.00000   0.00000  -3.89645
   Z37       -3.86803  -0.00000   0.00000   0.00000   0.00000  -3.86803
   X38       -9.33569  -0.00000   0.00000   0.00000   0.00000  -9.33569
   Y38       -1.30653  -0.00000   0.00000   0.00000   0.00000  -1.30653
   Z38       -3.79691  -0.00000   0.00000   0.00000   0.00000  -3.79691
   X39        0.39197   0.00675   0.00000   0.04266   0.04266   0.43463
   Y39       -0.93810   0.00739   0.00000   0.01303   0.01303  -0.92507
   Z39       -1.62541   0.00354   0.00000   0.01474   0.01474  -1.61067
   X40        4.04346   0.00845   0.00000   0.15329   0.15329   4.19675
   Y40       -0.30133  -0.00425   0.00000  -0.04900  -0.04900  -0.35033
   Z40       -1.33428   0.00210   0.00000   0.02521   0.02521  -1.30907
   X41       -2.37214  -0.00235   0.00000  -0.05363  -0.05363  -2.42577
   Y41       -4.06720   0.00393   0.00000  -0.06600  -0.06600  -4.13320
   Z41       -0.17028  -0.00944   0.00000  -0.07223  -0.07223  -0.24252
   X42       15.14059  -0.00066   0.00000  -0.00926  -0.00926  15.13132
   Y42        0.27650  -0.00055   0.00000   0.00279   0.00279   0.27929
   Z42        8.34973  -0.00106   0.00000  -0.01419  -0.01419   8.33554
   X43       14.32044   0.00003   0.00000  -0.01330  -0.01330  14.30714
   Y43       -0.92968   0.00130   0.00000   0.00180   0.00180  -0.92788
   Z43        6.28703   0.00031   0.00000  -0.00994  -0.00994   6.27709
   X44       13.18717  -0.01400   0.00000  -0.03206  -0.03206  13.15511
   Y44        0.34929  -0.00548   0.00000  -0.00785  -0.00785   0.34145
   Z44        4.02857  -0.00552   0.00000  -0.01212  -0.01212   4.01645
   X45       10.80993   0.00752   0.00000   0.01121   0.01121  10.82113
   Y45       -0.90315   0.01237   0.00000   0.01485   0.01485  -0.88830
   Z45        3.43670  -0.00840   0.00000  -0.00486  -0.00486   3.43184
   X46        9.61134   0.00782   0.00000   0.02760   0.02760   9.63893
   Y46       -0.00338  -0.00430   0.00000  -0.00660  -0.00660  -0.00997
   Z46        1.13555   0.01294   0.00000   0.03614   0.03614   1.17169
   X47        7.25255  -0.00846   0.00000   0.01986   0.01986   7.27241
   Y47       -1.60256   0.00628   0.00000  -0.00022  -0.00022  -1.60278
   Z47        0.67521  -0.01448   0.00000   0.00460   0.00460   0.67981
   X48        7.80691   0.00472   0.00000   0.01764   0.01764   7.82455
   Y48       -4.42407  -0.00124   0.00000  -0.00872  -0.00872  -4.43279
   Z48        0.67945  -0.00714   0.00000  -0.01114  -0.01114   0.66831
   X49        6.05833   0.00308   0.00000   0.06151   0.06151   6.11984
[...]
 ,0.,0.,0.,0.,0.,0.,0.,0.,0.,0.,0.,0.,0.,0.,0.,0.,0.,0.,0.,-0.00588612,
 -0.00350853,-0.00092351,-0.00477506,0.00175186,0.00027410,0.00454493,0
 .02672260,0.01858995,0.00003356,-0.00000105,0.00002397,0.00001147,0.00
 006775,-0.00003474,-0.00022486,-0.00001818,-0.00000735,0.00046436,-0.0
 0015639,0.00033015,-0.00023590,0.00006155,-0.00015035,-0.00065924,0.00
 083883,-0.00120440,0.00004765,0.00033687,0.00050346,0.00340456,-0.0018
 2785,0.00055228,0.00000473,-0.00000649,0.00002550,-0.00001239,-0.00001
 910,-0.00000620,0.00000122,-0.00002794,0.00001439,0.00003382,0.0000152
 0,-0.00001229,0.00001516,-0.00003455,-0.00001476,0.00006064,0.00001757
 ,0.00000182,-0.00005041,-0.00017970,-0.00004458,-0.00014154,-0.0000453
 3,-0.00001554,-0.00002960,0.00014967,0.00001121,0.00007757,-0.00010367
 ,0.00003274,0.00050749,-0.00121221,0.00061431,-0.00189249,0.00152040,0
 .00045485,0.00087632,-0.00032196,-0.00025981,-0.00026166,0.00003757,0.
 00018839,-0.00251323,-0.00192169,0.00263340,-0.00021660,-0.00033700,0.
 00024795,0.00022249,0.00041423,-0.00023736,-0.00015648,0.00003823,0.00
 000558,-0.00028651,-0.00052390,0.00018806,0.00008628,0.00020799,-0.000
 05649,-0.00003969,-0.00004549,0.00024229,0.00000231,0.00016631,0.00021
 219,0.00000784,-0.00004529,-0.00003556,0.00005461,-0.00007156,-0.00002
 768,0.00001131,-0.00013152,-0.00003143,0.00133909,0.00086705,-0.003230
 03,-0.00066121,0.00257869,0.00063210,0.00088048,-0.00019266,0.00001435
 ,-0.00153769,0.00223080,0.00060962,0.00333793,-0.00234304,-0.00067522,
 -0.00080720,-0.00121390,0.00071567,-0.00023432,0.00121552,-0.00035668,
 -0.00034095,-0.00034552,-0.00029512,0.00010837,0.00009796,0.00020062,0
 .00029030,-0.00012052,-0.00016675,0.00003393,0.00037464,0.00009062,0.0
 0006341,-0.00002205,-0.00000296,-0.00005846,-0.00003979,0.00001519,-0.
 00012482,-0.00013895,-0.00002390,0.00005401,-0.00036816,-0.00026302,0.
 03502054,0.77568861,0.01767078,-0.02135072,-0.00005420,0.00074309,0.06
 717772,-0.03011404,0.00802711,0.00468599,-0.00480325,0.,0.,0.,0.,0.,0.
 ,0.,0.,0.,-0.00055870,-0.00528735,0.00377598,0.,0.,0.,0.,0.,0.,0.,0.,0
 .,0.,0.,0.,0.,0.,0.,0.,0.,0.,0.,0.,0.,0.,0.,0.,0.,0.,0.,0.,0.,0.,0.,0.
 ,0.,0.,0.,0.,0.,0.,0.,0.,0.,0.,0.,0.,0.,0.,0.,0.,0.,0.,0.,0.,0.,0.,0.,
 0.,0.,0.,0.,0.,0.,0.,0.,0.,0.,0.,0.,0.,0.,0.,0.,0.,0.,0.,0.,0.,0.,0.,0
 .,0.,0.,0.,0.,0.,0.,0.,0.,0.,0.,0.,0.,0.,0.,-0.00864961,-0.00557841,0.
 00425692,-0.00439865,0.00157554,0.00106077,-0.00435295,-0.01531647,-0.
 03013305,0.00005625,0.00000883,-0.00003491,0.00006238,0.00002693,-0.00
 000651,-0.00022094,-0.00002274,0.00005759,0.00027653,0.00000031,-0.000
 10276,-0.00016567,0.00005129,0.00009030,-0.00000006,-0.00001657,-0.000
 03456,-0.00082411,0.00043203,0.00066768,0.00257212,-0.00108961,-0.0012
 2026,-0.00002487,-0.00000794,0.00001207,-0.00003090,-0.00001365,0.0000
 0847,-0.00002965,-0.00000903,0.00002009,0.00005188,-0.00000038,-0.0000
 4716,0.00000244,-0.00000849,0.00000159,0.00017350,0.00001176,-0.000038
 88,-0.00001896,-0.00005713,-0.00000410,-0.00011424,-0.00014523,-0.0003
 3295,0.00001639,0.00007387,0.00018856,0.00006713,-0.00009568,-0.000096
 95,-0.00269538,-0.00020135,-0.00138864,-0.00058798,-0.00107325,0.00119
 049,-0.00142851,0.00027788,-0.00011674,-0.00103057,0.00026677,0.001312
 52,0.00852709,0.00503549,-0.00326631,0.00006459,0.00022362,0.00041316,
 -0.00036000,-0.00088562,0.00055702,0.00021153,0.00011361,-0.00022917,0
 .00081243,0.00016620,-0.00074103,-0.00002533,-0.00005546,0.00001574,-0
 .00018977,-0.00007850,0.00005203,-0.00007318,0.00015503,-0.00054985,0.
 00002758,-0.00002082,0.00009842,-0.00023113,0.00009599,0.00002453,0.00
 008494,-0.00010148,-0.00011950,0.00210881,0.00025172,0.00273292,0.0003
 4363,0.00002105,0.00040720,-0.00187348,0.00018264,-0.00032522,0.005140
 92,-0.00186267,-0.00509160,-0.00043773,0.00036326,0.00112908,-0.000130
 21,0.00032853,-0.00078745,-0.00046529,-0.00069109,0.00138557,0.0014961
 5,-0.00007691,0.00108431,-0.00054663,0.00014478,-0.00035108,-0.0003269
 6,0.00005548,0.00003284,0.00004651,0.00003217,0.00046363,-0.00029779,-
 0.00008955,0.00012205,0.00011760,-0.00001070,-0.00006002,0.00023816,-0
 .00004629,0.00014760,0.00031492,-0.00022723,-0.00071468,-0.02684557,-0
 .39824397,0.67782393,-0.00104676,-0.00059892,-0.00163711,0.01565880,-0
 .00027268,-0.00389362,0.00090776,-0.00056550,-0.00119970,0.,0.,0.,0.,0
 .,0.,0.,0.,0.,-0.00103565,0.00036029,0.00008251,0.,0.,0.,0.,0.,0.,0.,0
 .,0.,0.,0.,0.,0.,0.,0.,0.,0.,0.,0.,0.,0.,0.,0.,0.,0.,0.,0.,0.,0.,0.,0.
 ,0.,0.,0.,0.,0.,0.,0.,0.,0.,0.,0.,0.,0.,0.,0.,0.,0.,0.,0.,0.,0.,0.,0.,
 0.,0.,0.,0.,0.,0.,0.,0.,0.,0.,0.,0.,0.,0.,0.,0.,0.,0.,0.,0.,0.,0.,0.,0
 .,0.,0.,0.,0.,0.,0.,0.,0.,0.,0.,0.,0.,0.,0.,0.,-0.00052068,0.00003563,
 0.00102534,-0.00022952,0.00023374,0.00029319,0.00341304,-0.00047180,-0
 .00090316,-0.00000871,0.00000537,-0.00002125,-0.00000147,-0.00001364,0
 .00001554,0.00010903,0.00008584,0.00006695,-0.00016786,-0.00006558,-0.
 00019251,0.00005405,0.00003846,0.00012609,0.00019149,-0.00009500,0.000
 29043,-0.00009751,0.00010691,0.00007214,-0.00010871,-0.00019845,-0.000
 54448,-0.00000542,0.00000175,-0.00000981,-0.00000002,-0.00000438,0.000
 00368,0.00000544,0.00000103,0.00000315,-0.00000808,-0.00000516,-0.0000
 0838,-0.00000904,-0.00002221,-0.00000526,0.00002297,0.00000902,-0.0000
 1719,-0.00000314,-0.00001511,-0.00001866,-0.00000262,-0.00000957,-0.00
 007507,0.00000478,-0.00003489,0.00009262,-0.00000972,-0.00001046,-0.00
 002261,-0.00148336,-0.00013637,-0.00014342,-0.00023858,-0.00160586,0.0
 0147937,-0.00136034,0.00008802,-0.00009113,-0.00019712,0.00009307,0.00
 033734,-0.00285179,-0.00030459,-0.00134038,-0.00012277,0.00004567,0.00
 010941,-0.00003581,-0.00068508,0.00043659,0.00006801,-0.00007790,0.000
 24402,-0.00029239,0.00010053,-0.00084481,0.00014166,-0.00004183,0.0002
 0965,-0.00001997,-0.00004324,0.00009793,-0.00006519,0.00002984,-0.0001
 1250,-0.00004669,-0.00001228,0.00012149,-0.00001974,0.00002497,-0.0000
 4023,-0.00004137,-0.00003482,-0.00010718,-0.00050461,0.00121040,0.0021
 6936,0.00010140,-0.00061294,0.00009400,-0.00129169,0.00005129,-0.00003
 315,-0.00118264,-0.00010524,-0.00172975,-0.00004351,0.00014916,0.00020
 264,-0.00005334,0.00035163,-0.00008131,0.00014643,0.00006571,0.0005760
 7,0.00059440,0.00002192,0.00056786,-0.00018481,0.00004636,-0.00017515,
 -0.00016297,0.00006432,-0.00001509,0.00009707,0.00000900,0.00014471,-0
 .00011466,-0.00004761,0.00004417,0.00002481,-0.00002302,0.00004106,0.0
 0009482,-0.00001655,0.00004009,-0.00002327,-0.00002713,-0.00015982,-0.
 08391063,-0.00316721,0.00242551,0.04402831,-0.00024950,-0.00161971,0.0
 0310773,-0.00097221,0.02294278,-0.01857041,-0.00068825,0.00046774,-0.0
 0142122,0.,0.,0.,0.,0.,0.,0.,0.,0.,0.00051227,0.00013799,0.00175854,0.
 ,0.,0.,0.,0.,0.,0.,0.,0.,0.,0.,0.,0.,0.,0.,0.,0.,0.,0.,0.,0.,0.,0.,0.,
 0.,0.,0.,0.,0.,0.,0.,0.,0.,0.,0.,0.,0.,0.,0.,0.,0.,0.,0.,0.,0.,0.,0.,0
 .,0.,0.,0.,0.,0.,0.,0.,0.,0.,0.,0.,0.,0.,0.,0.,0.,0.,0.,0.,0.,0.,0.,0.
 ,0.,0.,0.,0.,0.,0.,0.,0.,0.,0.,0.,0.,0.,0.,0.,0.,0.,0.,0.,0.,0.,0.,0.0
 0011371,-0.00051060,0.00120725,0.00086570,-0.00035322,0.00012675,-0.00
 105337,-0.00382868,-0.00628810,-0.00000124,0.00000134,-0.00001450,0.00
 000568,-0.00001916,0.00001131,0.00003714,-0.00000470,0.00000736,-0.000
 10943,0.00006313,-0.00012897,0.00005327,-0.00001875,0.00006555,0.00021
 979,-0.00031105,0.00041746,-0.00013625,-0.00005598,-0.00007877,-0.0007
 3293,0.00050243,-0.00041926,-0.00000569,0.00000103,-0.00000659,-0.0000
 0101,0.00000462,0.00000365,-0.00000569,0.00000864,-0.00000231,-0.00000
 250,-0.00000555,-0.00000339,-0.00000510,0.00001274,0.00000670,0.000009
 50,-0.00000497,-0.00000648,0.00001367,0.00005699,0.00001907,0.00002761
 ,-0.00000490,-0.00005887,0.00001474,-0.00002737,0.00001384,-0.00001598
 ,0.00002619,-0.00002299,-0.00062760,0.00036896,-0.00010438,-0.00022885
 ,-0.00125022,0.00038891,-0.00079803,0.00034336,0.00007050,-0.00032046,
 0.00002500,0.00024698,0.00066496,-0.00050265,-0.00112947,0.00015620,0.
 00024683,-0.00001645,-0.00020398,-0.00046441,0.00027599,0.00016723,-0.
 00001897,-0.00006048,0.00012817,0.00028655,-0.00015574,-0.00006077,-0.
 00013545,0.00003344,0.00005609,0.00002130,-0.00013845,0.00000635,-0.00
 017251,-0.00016035,-0.00000172,0.00004339,0.00002605,-0.00004547,0.000
 05568,0.00001869,-0.00001704,0.00010586,0.00003374,-0.00043909,-0.0009
 1642,0.00035034,-0.00004122,-0.00034398,-0.00039561,0.00001659,0.00019
 185,-0.00005221,0.00078233,-0.00139925,0.00033097,-0.00093200,0.000561
 36,0.00015626,0.00016477,0.00025405,-0.00012622,-0.00010176,-0.0003531
 3,0.00030668,0.00033688,0.00058888,0.00026825,-0.00003012,-0.00004033,
 -0.00009662,-0.00032007,0.00009736,0.00006444,0.00001967,-0.00015436,0
 .00005702,-0.00005451,0.00003614,0.00001165,0.00003705,0.00000683,-0.0
 0001573,0.00012572,0.00008205,0.00004292,0.00003536,0.00009384,-0.0000
 1104,-0.00575127,-0.19810916,0.19743441,0.01227869,0.22873160,-0.00669
 055,0.00924578,-0.00068876,-0.00529029,-0.01160848,-0.08736732,-0.0032
 6061,-0.00184293,0.00240995,0.,0.,0.,0.,0.,0.,0.,0.,0.,0.00037169,0.00
 220810,-0.00212680,0.,0.,0.,0.,0.,0.,0.,0.,0.,0.,0.,0.,0.,0.,0.,0.,0.,
 0.,0.,0.,0.,0.,0.,0.,0.,0.,0.,0.,0.,0.,0.,0.,0.,0.,0.,0.,0.,0.,0.,0.,0
 .,0.,0.,0.,0.,0.,0.,0.,0.,0.,0.,0.,0.,0.,0.,0.,0.,0.,0.,0.,0.,0.,0.,0.
 ,0.,0.,0.,0.,0.,0.,0.,0.,0.,0.,0.,0.,0.,0.,0.,0.,0.,0.,0.,0.,0.,0.,0.,
 0.,0.,0.,0.,0.,0.,0.00337237,0.00230894,-0.00162788,0.00182957,-0.0006
 1431,-0.00057736,-0.00046149,-0.00884312,-0.00351200,-0.00002797,-0.00
 000601,0.00002599,-0.00003494,-0.00000435,-0.00000230,0.00009011,0.000
 00312,-0.00004118,-0.00008208,-0.00001674,0.00012420,0.00005730,-0.000
 02665,-0.00008383,-0.00011156,0.00013313,-0.00018701,0.00049083,-0.000
 21093,-0.00030396,-0.00094481,0.00034535,0.00082381,0.00001589,0.00000
 379,-0.00000265,0.00001649,0.00000557,-0.00000606,0.00001740,0.0000013
 1,-0.00000999,-0.00002476,0.00000332,0.00002718,0.00000137,0.00000187,
 -0.00000266,-0.00009392,-0.00000275,0.00002407,0.00000414,0.00000946,-
 0.00000203,0.00004449,0.00007554,0.00019549,-0.00002156,-0.00001485,-0
 .00011147,-0.00002766,0.00004118,0.00006427,0.00176556,-0.00004862,0.0
 0110637,0.00163958,0.00146484,0.00019565,0.00080725,-0.00028428,0.0001
 0650,0.00110118,0.00004561,-0.00085894,-0.00405235,-0.00209243,0.00005
 971,-0.00000752,-0.00012356,-0.00026067,0.00024630,0.00057722,-0.00035
 941,-0.00019003,-0.00011189,0.00016509,-0.00079936,-0.00020214,0.00037
 729,0.00008657,0.00007578,0.00001743,0.00015254,0.00004177,0.00001066,
 0.00006741,-0.00009453,0.00041872,-0.00002564,0.00001233,-0.00005904,0
 .00016476,-0.00008179,-0.00003174,-0.00006296,0.00005239,0.00007209,-0
 .00027548,-0.00079264,-0.00299794,0.00017349,0.00015705,-0.00033783,0.
 00142085,-0.00013079,0.00028161,-0.00192325,0.00118338,0.00193657,0.00
 088867,-0.00040195,-0.00062862,0.00001685,-0.00017366,0.00067466,0.000
 36940,0.00042415,-0.00040788,-0.00098371,0.00006305,-0.00070829,0.0003
 6290,-0.00007716,0.00024955,0.00022234,-0.00006396,-0.00005683,-0.0000
 0805,0.00004260,-0.00027019,0.00019659,0.00005747,-0.00007488,-0.00008
 569,-0.00000515,0.00004207,-0.00016535,0.00001182,-0.00008818,-0.00017
 654,0.00007673,0.00037812,0.01027476,0.20354584,-0.46426260,-0.0063500
 5,-0.24891525,0.58644908,-0.00218123,0.00021327,0.00058615,0.02209538,
 -0.01275960,-0.00427656,0.00037873,-0.00029070,-0.00008622,0.,0.,0.,0.
 ,0.,0.,0.,0.,0.,-0.00020120,0.00028058,0.00014029,0.,0.,0.,0.,0.,0.,0.
 ,0.,0.,0.,0.,0.,0.,0.,0.,0.,0.,0.,0.,0.,0.,0.,0.,0.,0.,0.,0.,0.,0.,0.,
 0.,0.,0.,0.,0.,0.,0.,0.,0.,0.,0.,0.,0.,0.,0.,0.,0.,0.,0.,0.,0.,0.,0.,0
 .,0.,0.,0.,0.,0.,0.,0.,0.,0.,0.,0.,0.,0.,0.,0.,0.,0.,0.,0.,0.,0.,0.,0.
 ,0.,0.,0.,0.,0.,0.,0.,0.,0.,0.,0.,0.,0.,0.,0.,0.,-0.00024961,0.0001582
 8,0.00007296,-0.00018492,0.00023682,0.00003554,-0.00261912,0.00041188,
 0.00125317,-0.00001224,0.00000188,-0.00001165,-0.00000715,-0.00000678,
 0.00001217,0.00011369,0.00007482,0.00005543,-0.00013762,-0.00007535,-0
 .00012121,0.00005586,0.00000436,0.00009640,0.00003968,0.00008419,0.000
 06801,0.00011620,0.00010101,0.00003534,-0.00000267,-0.00031965,-0.0001
 1506,-0.00000187,0.00000238,-0.00000830,0.00000282,-0.00000386,0.00000
 156,0.00000948,-0.00000022,0.00000207,-0.00001206,-0.00000276,-0.00000
 214,-0.00000836,-0.00002179,-0.00000628,-0.00000027,0.00001237,-0.0000
 0967,-0.00001167,-0.00002918,-0.00002336,0.00000257,0.00000993,0.00000
 244,0.00000116,-0.00002222,0.00007372,-0.00002228,-0.00001988,0.000002
 78,0.00003750,-0.00021014,0.00044399,-0.00006446,0.00032208,0.00002373
 ,0.00014282,-0.00005679,-0.00004567,0.00009222,0.00006993,0.00000309,-
 0.00027329,-0.00013963,0.00012677,-0.00001268,-0.00002298,0.00002146,-
 0.00000822,0.00005106,-0.00001063,-0.00001319,-0.00000547,0.00002643,-
 0.00013435,-0.00016736,-0.00021410,0.00004076,0.00000755,0.00006145,-0
 .00000872,-0.00002064,0.00011249,-0.00000301,0.00003044,-0.00000125,-0
 .00001138,-0.00002437,0.00003841,0.00000364,0.00000428,-0.00002171,-0.
 00001882,-0.00003484,-0.00005384,0.00001104,0.00046991,-0.00098697,-0.
 00115367,0.00096712,0.00014985,-0.00003077,-0.00004172,0.00014518,0.00
 006931,0.00012002,-0.00022333,0.00049969,-0.00140754,-0.00017729,-0.00
 050750,-0.00044399,0.00051236,0.00035171,0.00065608,0.00002595,0.00007
 787,-0.00012673,-0.00002645,-0.00000077,0.00002942,0.00002319,0.000056
 98,-0.00002225,-0.00005724,0.00005754,0.00012472,0.00003499,-0.0000135
 8,-0.00001085,-0.00000284,-0.00000761,-0.00003115,0.00003893,-0.000008
 46,-0.00003049,0.00000356,-0.00010173,-0.00005527,-0.00007285,-0.08651
 357,-0.03729420,0.01316742,0.03040334,-0.00401074,0.00271563,0.0381015
 7,-0.00850962,0.00571249,0.00427753,-0.00995876,-0.08485616,-0.0392073
 0,-0.00401159,-0.00116419,-0.00031326,0.,0.,0.,0.,0.,0.,0.,0.,0.,0.000
 68785,0.00232232,0.00110819,0.,0.,0.,0.,0.,0.,0.,0.,0.,0.,0.,0.,0.,0.,
 0.,0.,0.,0.,0.,0.,0.,0.,0.,0.,0.,0.,0.,0.,0.,0.,0.,0.,0.,0.,0.,0.,0.,0
 .,0.,0.,0.,0.,0.,0.,0.,0.,0.,0.,0.,0.,0.,0.,0.,0.,0.,0.,0.,0.,0.,0.,0.
 ,0.,0.,0.,0.,0.,0.,0.,0.,0.,0.,0.,0.,0.,0.,0.,0.,0.,0.,0.,0.,0.,0.,0.,
 0.,0.,0.,0.,0.,0.,0.,0.,0.,0.00350269,0.00115111,-0.00005075,0.0028105
 6,-0.00109821,-0.00009815,0.00040078,-0.00684963,0.00403767,-0.0000189
 5,0.00000133,-0.00001754,-0.00000452,-0.00004281,0.00002263,0.00013656
 ,0.00001079,0.00000845,-0.00028896,0.00010046,-0.00022375,0.00014258,-
 0.00003559,0.00010622,0.00041800,-0.00054452,0.00078292,-0.00006815,-0
 .00018581,-0.00028843,-0.00208746,0.00113595,-0.00044241,-0.00000454,0
 .00000373,-0.00001618,0.00000637,0.00001184,0.00000448,-0.00000237,0.0
 0001786,-0.00000780,-0.00001927,-0.00001016,0.00000535,-0.00001005,0.0
 0002197,0.00000963,-0.00002881,-0.00001032,-0.00000351,0.00003068,0.00
 011267,0.00002821,0.00008699,0.00002062,-0.00001276,0.00002407,-0.0000
 9281,0.00001343,-0.00004947,0.00005839,-0.00002770,-0.00059780,0.00068
 868,-0.00044757,0.00075495,-0.00106925,-0.00031737,-0.00061374,0.00026
 629,0.00014463,-0.00010287,-0.00007993,-0.00000205,0.00242058,0.001258
 45,-0.00111329,0.00014363,0.00022375,-0.00011027,-0.00016976,-0.000323
 46,0.00018057,0.00014106,0.00000030,-0.00004834,0.00025098,0.00032814,
 -0.00016308,-0.00006990,-0.00014267,0.00003762,0.00002167,0.00002563,-
 0.00015162,-0.00001236,-0.00012429,-0.00016984,-0.00000244,0.00002846,
 0.00002716,-0.00005033,0.00005310,0.00002012,-0.00000235,0.00008327,0.
 00001468,-0.00019540,-0.00064385,0.00206749,0.00075818,-0.00139230,-0.
 00041757,-0.00060233,0.00013751,0.00000403,0.00113381,-0.00127275,-0.0
 0078512,-0.00162225,0.00107945,0.00036262,0.00044396,0.00063024,-0.000
 46277,0.00010917,-0.00054978,0.00017610,0.00032301,0.00025189,0.000266
 14,-0.00010072,-0.00004612,-0.00014929,-0.00022492,0.00009051,0.000109
 15,-0.00001953,-0.00023438,-0.00002480,-0.00005904,0.00001154,0.000008
 36,0.00004445,0.00002312,-0.00001139,0.00010110,0.00009034,0.00002502,
 -0.00002715,0.00022392,0.00012577,-0.03537320,-0.53019477,0.16297409,-
 0.00747458,-0.04506236,0.06056954,0.05328829,0.66299025,-0.00241435,0.
 00326797,-0.00094468,-0.00456294,-0.04569917,0.00654089,-0.00128073,-0
 .00071836,0.00126461,0.,0.,0.,0.,0.,0.,0.,0.,0.,0.00011965,0.00086247,
 -0.00119273,0.,0.,0.,0.,0.,0.,0.,0.,0.,0.,0.,0.,0.,0.,0.,0.,0.,0.,0.,0
 .,0.,0.,0.,0.,0.,0.,0.,0.,0.,0.,0.,0.,0.,0.,0.,0.,0.,0.,0.,0.,0.,0.,0.
 ,0.,0.,0.,0.,0.,0.,0.,0.,0.,0.,0.,0.,0.,0.,0.,0.,0.,0.,0.,0.,0.,0.,0.,
 0.,0.,0.,0.,0.,0.,0.,0.,0.,0.,0.,0.,0.,0.,0.,0.,0.,0.,0.,0.,0.,0.,0.,0
 .,0.,0.,0.,0.00132377,0.00072878,-0.00100332,0.00053192,-0.00019925,-0
 .00026488,0.00164811,0.00412648,0.00662394,-0.00001290,-0.00000304,0.0
 0001502,-0.00001955,0.00000084,-0.00000346,0.00003516,0.00000383,-0.00
 001963,-0.00001105,-0.00002180,0.00008456,0.00001436,-0.00001224,-0.00
 005230,-0.00010768,0.00012873,-0.00019330,0.00028267,-0.00009313,-0.00
 015101,-0.00020628,0.00007499,0.00045590,0.00000913,0.00000173,0.00000
 001,0.00000832,0.00000155,-0.00000364,0.00001039,-0.00000133,-0.000004
 78,-0.00001117,0.00000183,0.00001372,0.00000110,-0.00000208,-0.0000024
 3,-0.00004498,-0.00000276,0.00001312,-0.00000250,-0.00000865,-0.000003
 70,0.00000794,0.00004961,0.00009637,-0.00001036,0.00000363,-0.00007903
 ,-0.00000032,0.00001873,0.00003776,0.00081111,0.00002598,0.00037089,0.
 00003474,0.00029644,-0.00014462,0.00038038,-0.00011888,0.00001915,0.00
 029679,-0.00002814,-0.00033335,-0.00234502,-0.00110123,0.00071797,-0.0
 0003972,-0.00009091,-0.00008810,0.00011689,0.00025125,-0.00015710,-0.0
 0007766,-0.00003586,0.00007167,-0.00024287,-0.00007842,0.00019651,0.00
 001139,0.00001422,-0.00000191,0.00004327,0.00002150,0.00000668,0.00001
 923,-0.00002650,0.00016024,-0.00001079,0.00000151,-0.00002774,0.000071
 80,-0.00002678,-0.00000821,-0.00003086,0.00001907,0.00002782,-0.000861
 63,0.00002086,-0.00061511,0.00018992,-0.00022834,0.00026461,0.00034839
 ,-0.00006452,0.00011274,-0.00123425,0.00030302,0.00106451,0.00016030,-
 0.00002863,-0.00071603,0.00008393,0.00005184,0.00018548,0.00007354,0.0
 0037354,-0.00029916,-0.00045059,-0.00002539,-0.00030781,0.00014689,-0.
 00003656,0.00009781,0.00011587,-0.00002664,-0.00002080,-0.00001798,0.0
 0001318,-0.00012254,0.00008635,0.00002071,-0.00003233,-0.00003475,0.00
 000285,0.00001590,-0.00007596,0.00000045,-0.00004139,-0.00008899,0.000
 02613,0.00020563,0.01165670,0.15185858,-0.15152248,0.00753188,0.075818
 87,-0.02974188,-0.01272991,-0.18760012,0.16732582\\0.,0.,0.,0.,0.,0.,0
 .,0.00000001,0.,0.,0.,0.,0.,0.,0.,0.,0.,0.,0.,0.,0.,0.,0.,0.,0.,0.,0.,
 0.,0.,0.,0.,0.,0.,0.,0.,0.,0.,0.,0.,0.,0.,0.,0.,0.,0.,0.,0.,0.,0.,0.,0
 .,0.,0.,0.,0.,0.,0.,0.,0.,0.,0.,0.,0.,0.,0.,0.,0.,0.,0.,0.,0.,0.,0.,0.
 ,0.,0.,0.,0.,0.,0.,0.,0.,0.,0.,0.,0.,0.,0.,0.,0.,0.,0.,0.,0.,0.,0.,0.,
 0.,0.,0.,0.,0.,0.,0.,0.,0.,0.,0.,0.,0.,0.,0.,0.,0.,0.,-0.00000001,0.,-
 0.00000001,0.,0.,0.,0.,0.,0.00000004,0.00000005,0.00000011,-0.00000003
 ,-0.00000005,-0.00000009,0.00000001,0.,0.00000004,-0.00000007,-0.00000
 004,0.,0.,0.,0.00000001,0.,-0.00000001,-0.00000001,0.,0.,0.,0.,0.,-0.0
 0000004,0.00000001,0.,0.00000002,0.,0.00000005,0.00000001,0.,-0.000000
 04,-0.00000001,0.00000006,0.,-0.00000006,0.,0.00000005,0.00000002,0.00
 000004,0.,-0.00000004,0.,0.00000002,0.,-0.00000003,0.,0.00000004,-0.00
 000002,-0.00000002,0.,0.,0.,0.,0.,0.,0.,0.,0.,-0.00000001,0.,0.,0.,0.,
 0.,0.00000003,-0.00000002,0.,0.,0.,0.00000001,0.00000001,0.00000001,0.
 ,0.,-0.00000001,0.,-0.00000002,0.,0.00000002,0.,-0.00000001,-0.0000000
 2,0.,0.,0.,0.,-0.00000003,0.,0.,0.,0.,-0.00000003,0.00000003,0.,0.,0.,
 0.,0.,0.,0.,0.,0.,0.,0.,0.,0.,0.,-0.00000002,0.,0.,0.,0.,0.,0.00000002
 ,0.,0.,0.,0.,0.,0.,0.,0.,-0.00000002,-0.00000001,0.00000001,0.00000001
 ,-0.00000001,0.,0.,0.,0.00000002,0.00000003,0.,0.,0.,0.,-0.00000003,0.
 ,0.00000002,0.,0.00000002,0.,-0.00000002,0.,0.,0.,0.,0.,0.,0.,0.,0.\\\
 @


 SILVERMAN'S PARADOX - IF MURPHY'S LAW CAN GO WRONG, IT WILL.
 Job cpu time:       7 days  3 hours 46 minutes  2.0 seconds.
 Elapsed time:       0 days  2 hours 42 minutes 40.5 seconds.
 File lengths (MBytes):  RWF=   7183 Int=      0 D2E=      0 Chk=     85 Scr=      2
 Normal termination of Gaussian 16 at Fri Sep 29 04:18:43 2023.
