 Entering Gaussian System, Link 0=g16
 Input=OH_AGE_TEABr_ro_opt_freq_TEA_relax_6_31Gdp_rere.com
 Output=OH_AGE_TEABr_ro_opt_freq_TEA_relax_6_31Gdp_rere.log
 Initial command:
 /opt/ohpc/pub/apps/gaussian/avx2/g16/l1.exe "/scratch/g16-tmp/Gau-2792681.inp" -scrdir="/scratch/g16-tmp/"
 Entering Link 1 = /opt/ohpc/pub/apps/gaussian/avx2/g16/l1.exe PID=   2792682.
  
 Copyright (c) 1988-2017, Gaussian, Inc.  All Rights Reserved.
  
 This is part of the Gaussian(R) 16 program.  It is based on
 the Gaussian(R) 09 system (copyright 2009, Gaussian, Inc.),
 the Gaussian(R) 03 system (copyright 2003, Gaussian, Inc.),
 the Gaussian(R) 98 system (copyright 1998, Gaussian, Inc.),
 the Gaussian(R) 94 system (copyright 1995, Gaussian, Inc.),
 the Gaussian 92(TM) system (copyright 1992, Gaussian, Inc.),
 the Gaussian 90(TM) system (copyright 1990, Gaussian, Inc.),
 the Gaussian 88(TM) system (copyright 1988, Gaussian, Inc.),
 the Gaussian 86(TM) system (copyright 1986, Carnegie Mellon
 University), and the Gaussian 82(TM) system (copyright 1983,
 Carnegie Mellon University). Gaussian is a federally registered
 trademark of Gaussian, Inc.
  
 This software contains proprietary and confidential information,
 including trade secrets, belonging to Gaussian, Inc.
  
 This software is provided under written license and may be
 used, copied, transmitted, or stored only in accord with that
 written license.
  
 The following legend is applicable only to US Government
 contracts under FAR:
  
                    RESTRICTED RIGHTS LEGEND
  
 Use, reproduction and disclosure by the US Government is
 subject to restrictions as set forth in subparagraphs (a)
 and (c) of the Commercial Computer Software - Restricted
 Rights clause in FAR 52.227-19.
  
 Gaussian, Inc.
 340 Quinnipiac St., Bldg. 40, Wallingford CT 06492
  
  
 ---------------------------------------------------------------
 Warning -- This program may not be used in any manner that
 competes with the business of Gaussian, Inc. or will provide
 assistance to any competitor of Gaussian, Inc.  The licensee
 of this program is prohibited from giving any competitor of
 Gaussian, Inc. access to this program.  By using this program,
 the user acknowledges that Gaussian, Inc. is engaged in the
 business of creating and licensing software in the field of
 computational chemistry and represents and warrants to the
 licensee that it is not a competitor of Gaussian, Inc. and that
 it will not use this program in any manner prohibited above.
 ---------------------------------------------------------------
  

 Cite this work as:
 Gaussian 16, Revision B.01,
 M. J. Frisch, G. W. Trucks, H. B. Schlegel, G. E. Scuseria, 
 M. A. Robb, J. R. Cheeseman, G. Scalmani, V. Barone, 
 G. A. Petersson, H. Nakatsuji, X. Li, M. Caricato, A. V. Marenich, 
 J. Bloino, B. G. Janesko, R. Gomperts, B. Mennucci, H. P. Hratchian, 
 J. V. Ortiz, A. F. Izmaylov, J. L. Sonnenberg, D. Williams-Young, 
 F. Ding, F. Lipparini, F. Egidi, J. Goings, B. Peng, A. Petrone, 
 T. Henderson, D. Ranasinghe, V. G. Zakrzewski, J. Gao, N. Rega, 
 G. Zheng, W. Liang, M. Hada, M. Ehara, K. Toyota, R. Fukuda, 
 J. Hasegawa, M. Ishida, T. Nakajima, Y. Honda, O. Kitao, H. Nakai, 
 T. Vreven, K. Throssell, J. A. Montgomery, Jr., J. E. Peralta, 
 F. Ogliaro, M. J. Bearpark, J. J. Heyd, E. N. Brothers, K. N. Kudin, 
 V. N. Staroverov, T. A. Keith, R. Kobayashi, J. Normand, 
 K. Raghavachari, A. P. Rendell, J. C. Burant, S. S. Iyengar, 
 J. Tomasi, M. Cossi, J. M. Millam, M. Klene, C. Adamo, R. Cammi, 
 J. W. Ochterski, R. L. Martin, K. Morokuma, O. Farkas, 
 J. B. Foresman, and D. J. Fox, Gaussian, Inc., Wallingford CT, 2016.
 
 ******************************************
 Gaussian 16:  ES64L-G16RevB.01 20-Dec-2017
                11-Sep-2023 
 ******************************************
 %nprocshared=64
 Will use up to   64 processors via shared memory.
 %mem=64GB
 %chk=OH_AGE_TEABr_ro_opt_freq_TEA_relax_6_31Gdp_rere.chk
 ----------------------------------------------------------------------
 # opt=(calcall,tight,cartesian) freq b3lyp/gen nosymm scf=(qc,maxcycle
 =1024) pseudo=read
 ----------------------------------------------------------------------
 1/7=10,10=4,18=10,26=3,38=1/1,3;
 2/12=2,15=1,17=6,18=5,29=2,40=1/2;
 3/5=7,11=2,16=1,17=8,25=1,30=1,71=2,74=-5,140=1/1,2,3;
 4//1;
 5/5=2,7=1024,8=3,38=5/8;
 8/6=4,10=90,11=11/1;
 11/6=1,8=1,9=11,15=111,16=1,31=1/1,2,10;
 10/6=1,31=1/2;
 6/7=2,8=2,9=2,10=2,18=1,28=1/1;
 7/7=1,10=1,25=1,30=1/1,2,3,16;
 1/7=10,10=4,18=10,26=3/3(3);
 2/15=1,29=1/2;
 7/7=1,8=1,9=1,25=1,30=1,44=-1/16;
 99/12=1/99;
 2/15=1,29=1/2;
 3/5=7,6=1,11=2,16=1,17=8,25=1,30=1,71=2,74=-5,82=7,140=1/1,2,3;
 4/5=5,16=3,69=1/1;
 5/5=2,7=1024,8=3,38=5/8;
 8/6=4,10=90,11=11/1;
 11/6=1,8=1,9=11,15=111,16=1,31=1/1,2,10;
 10/6=1,31=1/2;
 7/7=1,10=1,25=1,30=1/1,2,3,16;
 1/7=10,10=4,18=10,26=3/3(-8);
 2/15=1,29=1/2;
 6/7=2,8=2,9=2,10=2,18=1,19=2,28=1/1;
 7/7=1,8=1,9=1,25=1,30=1,44=-1/16;
 99/12=1/99;
 -----------------------------------------------
 OH_AGE_TEABr_ro_opt_freq_TEA_relax_6_31Gdp_rere
 -----------------------------------------------
 Symbolic Z-matrix:
 Charge =  0 Multiplicity = 1
 Zn                   0    -2.60288  -0.15927  -0.18894 
 O                    0    -1.21181  -1.38408  -0.97788 
 O                    0     0.93988   0.28019  -0.76295 
 O                    -1   -1.94049  -0.63788   1.72455 
 O                    -1   -0.37269   1.01087   1.91697 
 C                    -1   -1.06872   0.05737   2.35689 
 Zn                   0    -0.18304   1.7982   -0.07726 
 O                    -1   -1.63008   3.22081   0.54068 
 O                    -1   -3.34506   1.72518   0.7202 
 O                    -1   -1.08556   1.98476  -2.06075 
 O                    -1   -2.99376   0.73733  -2.01137 
 C                    -1   -2.81579   2.87056   0.84076 
 C                    -1   -2.15087   1.52281  -2.5591 
 H                    -1   -0.90808  -0.23463   3.41991 
 H                    -1   -3.46664   3.66873   1.26094 
 H                    -1   -2.38928   1.83636  -3.59889 
 C                    -1    2.59139   2.8597   -0.55114 
 C                    -1    3.70861   3.70782  -0.53735 
 C                    -1    3.56604   5.00673  -0.02115 
 C                    -1    2.30987   5.41502   0.45914 
 C                    -1    1.24091   4.5082    0.4104 
 N                    -1    1.38395   3.25577  -0.08258 
 H                    -1    4.41909   5.6904    0.00577 
 H                    -1    2.63016   1.83613  -0.93464 
 H                    -1    4.66543   3.35003  -0.92345 
 H                    -1    2.15477   6.41643   0.86647 
 H                    -1    0.23924   4.76357   0.76449 
 C                    -1   -4.7348   -1.98934   1.01851 
 C                    -1   -5.89393  -2.77545   1.08885 
 C                    -1   -6.7547   -2.81324  -0.02128 
 C                    -1   -6.42657  -2.06253  -1.16273 
 C                    -1   -5.2498   -1.29945  -1.15551 
 N                    -1   -4.42128  -1.26805  -0.08421 
 H                    -1   -7.66587  -3.41713   0.0031 
 H                    -1   -4.0254   -1.91717   1.84682 
 H                    -1   -6.11102  -3.34226   1.99667 
 H                    -1   -7.0675   -2.06191  -2.04688 
 H                    -1   -4.94024  -0.69138  -2.00924 
 H                    0     0.25654  -0.43343  -0.84686 
 H                    0     2.22538  -0.26568  -0.52506 
 H                    0    -1.05837  -2.05766  -0.30163 
 C                    0     7.18759  -1.92356   5.24479 
 C                    0     6.63236  -2.40113   4.12814 
 C                    0     6.4676   -1.61521   2.8609 
 O                    0     5.11582  -1.70337   2.43151 
 C                    0     4.88656  -1.08693   1.17067 
 C                    0     3.41635  -1.25158   0.7852 
 C                    0     2.93933  -2.70287   0.82783 
 O                    0     3.2177   -0.6383   -0.45691 
 H                    0     7.31357  -2.54303   6.12808 
 H                    0     7.53634  -0.89523   5.3139 
 H                    0     6.27841  -3.43064   4.08728 
 H                    0     7.12599  -2.02888   2.07599 
 H                    0     6.75712  -0.56304   3.01723 
 H                    0     5.52432  -1.54267   0.3975 
 H                    0     5.11447  -0.01127   1.21669 
 H                    0     2.80769  -0.75954   1.56704 
 H                    0     1.88924  -2.7765    0.54902 
 H                    0     3.12283  -3.16469   1.79695 
 N                    0     1.89975  -1.26612  -4.4421 
 C                    0     0.95999  -0.15308  -3.90901 
 C                    0     1.16143   1.25796  -4.45424 
 H                    0     1.05659  -0.1415   -2.81728 
 H                    0    -0.0507   -0.4912   -4.14704 
 H                    0     0.4931    1.89013  -3.86035 
 H                    0     2.17486   1.64043  -4.31711 
 H                    0     0.8847    1.36495  -5.50765 
 C                    0     2.23118  -1.00005  -5.90055 
 C                    0     3.13068  -2.01993  -6.59595 
 H                    0     2.69687  -0.01713  -5.93806 
 H                    0     1.26931  -0.92593  -6.41548 
 H                    0     3.32189  -1.65128  -7.60894 
 H                    0     4.09953  -2.13105  -6.10259 
 H                    0     2.67224  -3.00648  -6.69265 
 C                    0     1.14469  -2.60037  -4.36303 
 C                    0     0.66897  -3.02794  -2.9815 
 H                    0     1.82059  -3.35073  -4.77682 
 H                    0     0.2981   -2.489    -5.04725 
 H                    0     0.11815  -3.96554  -3.12082 
 H                    0     1.5043   -3.24528  -2.31124 
 H                    0    -0.01479  -2.3202   -2.49505 
 C                    0     3.16084  -1.38888  -3.5819 
 C                    0     4.15819  -0.24169  -3.66414 
 H                    0     3.63307  -2.3285   -3.87696 
 H                    0     2.83342  -1.48767  -2.54714 
 H                    0     4.98777  -0.50918  -3.00395 
 H                    0     4.56254  -0.07493  -4.66756 
 H                    0     3.74375   0.6907   -3.27954 
 Br                   0     3.88552  -3.88613  -0.48614 
 

 GradGradGradGradGradGradGradGradGradGradGradGradGradGradGradGradGradGrad
 Berny optimization.
 Initialization pass.
 No Z-matrix variables, so optimization will use Cartesian coordinates.
 Trust Radius=3.00D-01 FncErr=1.00D-07 GrdErr=1.00D-06 EigMax=2.50D+02 EigMin=1.00D-04
 Number of steps in this run=    277 maximum allowed number of steps=    534.
 GradGradGradGradGradGradGradGradGradGradGradGradGradGradGradGradGradGrad

 Symmetry turned off by external request.
 Stoichiometry    C27H46BrN3O10Zn2
 Framework group  C1[X(C27H46BrN3O10Zn2)]
 Deg. of freedom   261
 Full point group                 C1      NOp   1
                          Input orientation:                          
 ---------------------------------------------------------------------
 Center     Atomic      Atomic             Coordinates (Angstroms)
 Number     Number       Type             X           Y           Z
 ---------------------------------------------------------------------
      1         30           0       -2.602883   -0.159266   -0.188943
      2          8           0       -1.211812   -1.384083   -0.977875
      3          8           0        0.939883    0.280194   -0.762946
      4          8           0       -1.940493   -0.637880    1.724552
      5          8           0       -0.372693    1.010875    1.916972
      6          6           0       -1.068724    0.057367    2.356892
      7         30           0       -0.183039    1.798200   -0.077263
      8          8           0       -1.630079    3.220806    0.540676
      9          8           0       -3.345064    1.725183    0.720202
     10          8           0       -1.085559    1.984761   -2.060749
     11          8           0       -2.993756    0.737325   -2.011366
     12          6           0       -2.815788    2.870560    0.840756
     13          6           0       -2.150867    1.522812   -2.559095
     14          1           0       -0.908079   -0.234626    3.419908
     15          1           0       -3.466636    3.668730    1.260937
     16          1           0       -2.389282    1.836355   -3.598888
     17          6           0        2.591387    2.859704   -0.551135
     18          6           0        3.708612    3.707815   -0.537348
     19          6           0        3.566043    5.006726   -0.021154
     20          6           0        2.309865    5.415023    0.459138
     21          6           0        1.240906    4.508199    0.410399
     22          7           0        1.383948    3.255771   -0.082584
     23          1           0        4.419088    5.690402    0.005770
     24          1           0        2.630158    1.836132   -0.934636
     25          1           0        4.665434    3.350028   -0.923448
     26          1           0        2.154774    6.416431    0.866473
     27          1           0        0.239236    4.763568    0.764493
     28          6           0       -4.734795   -1.989342    1.018511
     29          6           0       -5.893934   -2.775449    1.088845
     30          6           0       -6.754703   -2.813244   -0.021280
     31          6           0       -6.426568   -2.062530   -1.162730
     32          6           0       -5.249797   -1.299450   -1.155511
     33          7           0       -4.421278   -1.268045   -0.084209
     34          1           0       -7.665873   -3.417132    0.003100
     35          1           0       -4.025399   -1.917166    1.846823
     36          1           0       -6.111019   -3.342262    1.996669
     37          1           0       -7.067496   -2.061912   -2.046875
     38          1           0       -4.940236   -0.691384   -2.009240
     39          1           0        0.256537   -0.433425   -0.846860
     40          1           0        2.225375   -0.265679   -0.525057
     41          1           0       -1.058374   -2.057656   -0.301629
     42          6           0        7.187591   -1.923560    5.244788
     43          6           0        6.632361   -2.401128    4.128145
     44          6           0        6.467597   -1.615214    2.860904
     45          8           0        5.115819   -1.703365    2.431506
     46          6           0        4.886563   -1.086930    1.170666
     47          6           0        3.416348   -1.251579    0.785203
     48          6           0        2.939328   -2.702874    0.827832
     49          8           0        3.217702   -0.638301   -0.456907
     50          1           0        7.313572   -2.543033    6.128080
     51          1           0        7.536344   -0.895226    5.313902
     52          1           0        6.278409   -3.430638    4.087283
     53          1           0        7.125990   -2.028882    2.075994
     54          1           0        6.757123   -0.563038    3.017232
     55          1           0        5.524321   -1.542669    0.397502
     56          1           0        5.114469   -0.011270    1.216690
     57          1           0        2.807693   -0.759541    1.567040
     58          1           0        1.889237   -2.776503    0.549016
     59          1           0        3.122832   -3.164688    1.796950
     60          7           0        1.899749   -1.266115   -4.442103
     61          6           0        0.959993   -0.153077   -3.909012
     62          6           0        1.161432    1.257956   -4.454235
     63          1           0        1.056587   -0.141503   -2.817275
     64          1           0       -0.050696   -0.491197   -4.147036
     65          1           0        0.493097    1.890131   -3.860351
     66          1           0        2.174862    1.640427   -4.317114
     67          1           0        0.884704    1.364954   -5.507649
     68          6           0        2.231176   -1.000053   -5.900550
     69          6           0        3.130677   -2.019926   -6.595953
     70          1           0        2.696869   -0.017133   -5.938064
     71          1           0        1.269305   -0.925926   -6.415478
     72          1           0        3.321886   -1.651278   -7.608943
     73          1           0        4.099532   -2.131051   -6.102595
     74          1           0        2.672244   -3.006477   -6.692649
     75          6           0        1.144692   -2.600370   -4.363026
     76          6           0        0.668967   -3.027941   -2.981497
     77          1           0        1.820590   -3.350727   -4.776819
     78          1           0        0.298102   -2.489001   -5.047255
     79          1           0        0.118146   -3.965542   -3.120824
     80          1           0        1.504304   -3.245279   -2.311241
     81          1           0       -0.014789   -2.320204   -2.495048
     82          6           0        3.160840   -1.388875   -3.581903
     83          6           0        4.158194   -0.241685   -3.664141
     84          1           0        3.633065   -2.328498   -3.876959
     85          1           0        2.833415   -1.487669   -2.547143
     86          1           0        4.987770   -0.509184   -3.003952
     87          1           0        4.562540   -0.074927   -4.667562
     88          1           0        3.743745    0.690704   -3.279536
     89         35           0        3.885523   -3.886134   -0.486138
 ---------------------------------------------------------------------
 Rotational constants (GHZ):           0.0622245           0.0391399           0.0373678
 General basis read from cards:  (5D, 7F)
 ======================================================================================================
                                       Pseudopotential Parameters
 ======================================================================================================
  Center     Atomic      Valence      Angular      Power
  Number     Number     Electrons     Momentum     of R      Exponent        Coefficient   SO-Coeffient
 ======================================================================================================
    1         30           12
                                      F and up 
                                                     1      386.7379660      -18.00000000    0.00000000
                                                     2       72.8587359     -124.35274030    0.00000000
                                                     2       15.9066170      -30.66018220    0.00000000
                                                     2        4.3502340      -10.63589890    0.00000000
                                                     2        1.2842199       -0.76836230    0.00000000
                                      S - F
                                                     0       19.0867858        3.00000000    0.00000000
                                                     1        5.0231080       22.52342250    0.00000000
                                                     2        1.2701744       48.44659420    0.00000000
                                                     2        1.0671287      -44.55601190    0.00000000
                                                     2        0.9264190       12.99839580    0.00000000
                                      P - F
                                                     0       43.4927750        5.00000000    0.00000000
                                                     1       20.8692669       20.74355890    0.00000000
                                                     2       21.7118378       90.30271580    0.00000000
                                                     2        6.3616915       74.66103160    0.00000000
                                                     2        1.2291195        9.88944240    0.00000000
                                      D - F
                                                     2       13.5851800       -4.84903590    0.00000000
                                                     2        9.8373050        3.69133790    0.00000000
                                                     2        0.8373113       -0.50373190    0.00000000
    2          8
                                   No pseudopotential on this center.
    3          8
                                   No pseudopotential on this center.
    4          8
                                   No pseudopotential on this center.
    5          8
                                   No pseudopotential on this center.
    6          6
                                   No pseudopotential on this center.
    7         30           12
                                      F and up 
                                                     1      386.7379660      -18.00000000    0.00000000
                                                     2       72.8587359     -124.35274030    0.00000000
                                                     2       15.9066170      -30.66018220    0.00000000
                                                     2        4.3502340      -10.63589890    0.00000000
                                                     2        1.2842199       -0.76836230    0.00000000
                                      S - F
                                                     0       19.0867858        3.00000000    0.00000000
                                                     1        5.0231080       22.52342250    0.00000000
                                                     2        1.2701744       48.44659420    0.00000000
                                                     2        1.0671287      -44.55601190    0.00000000
                                                     2        0.9264190       12.99839580    0.00000000
                                      P - F
                                                     0       43.4927750        5.00000000    0.00000000
                                                     1       20.8692669       20.74355890    0.00000000
                                                     2       21.7118378       90.30271580    0.00000000
                                                     2        6.3616915       74.66103160    0.00000000
                                                     2        1.2291195        9.88944240    0.00000000
                                      D - F
                                                     2       13.5851800       -4.84903590    0.00000000
                                                     2        9.8373050        3.69133790    0.00000000
                                                     2        0.8373113       -0.50373190    0.00000000
    8          8
                                   No pseudopotential on this center.
    9          8
                                   No pseudopotential on this center.
   10          8
                                   No pseudopotential on this center.
   11          8
                                   No pseudopotential on this center.
   12          6
                                   No pseudopotential on this center.
   13          6
                                   No pseudopotential on this center.
   14          1
                                   No pseudopotential on this center.
   15          1
                                   No pseudopotential on this center.
   16          1
                                   No pseudopotential on this center.
   17          6
                                   No pseudopotential on this center.
   18          6
                                   No pseudopotential on this center.
   19          6
                                   No pseudopotential on this center.
   20          6
                                   No pseudopotential on this center.
   21          6
                                   No pseudopotential on this center.
   22          7
                                   No pseudopotential on this center.
   23          1
                                   No pseudopotential on this center.
   24          1
                                   No pseudopotential on this center.
   25          1
                                   No pseudopotential on this center.
   26          1
                                   No pseudopotential on this center.
   27          1
                                   No pseudopotential on this center.
   28          6
                                   No pseudopotential on this center.
   29          6
                                   No pseudopotential on this center.
   30          6
                                   No pseudopotential on this center.
   31          6
                                   No pseudopotential on this center.
   32          6
                                   No pseudopotential on this center.
   33          7
                                   No pseudopotential on this center.
   34          1
                                   No pseudopotential on this center.
   35          1
                                   No pseudopotential on this center.
   36          1
                                   No pseudopotential on this center.
   37          1
                                   No pseudopotential on this center.
   38          1
                                   No pseudopotential on this center.
   39          1
                                   No pseudopotential on this center.
   40          1
                                   No pseudopotential on this center.
   41          1
                                   No pseudopotential on this center.
   42          6
                                   No pseudopotential on this center.
   43          6
                                   No pseudopotential on this center.
   44          6
                                   No pseudopotential on this center.
   45          8
                                   No pseudopotential on this center.
   46          6
                                   No pseudopotential on this center.
   47          6
                                   No pseudopotential on this center.
   48          6
                                   No pseudopotential on this center.
   49          8
                                   No pseudopotential on this center.
   50          1
                                   No pseudopotential on this center.
   51          1
                                   No pseudopotential on this center.
   52          1
                                   No pseudopotential on this center.
   53          1
                                   No pseudopotential on this center.
   54          1
                                   No pseudopotential on this center.
   55          1
                                   No pseudopotential on this center.
   56          1
                                   No pseudopotential on this center.
   57          1
                                   No pseudopotential on this center.
   58          1
                                   No pseudopotential on this center.
   59          1
                                   No pseudopotential on this center.
   60          7
                                   No pseudopotential on this center.
   61          6
                                   No pseudopotential on this center.
   62          6
                                   No pseudopotential on this center.
   63          1
                                   No pseudopotential on this center.
   64          1
                                   No pseudopotential on this center.
   65          1
                                   No pseudopotential on this center.
   66          1
                                   No pseudopotential on this center.
   67          1
                                   No pseudopotential on this center.
   68          6
                                   No pseudopotential on this center.
   69          6
                                   No pseudopotential on this center.
   70          1
                                   No pseudopotential on this center.
   71          1
                                   No pseudopotential on this center.
   72          1
                                   No pseudopotential on this center.
   73          1
                                   No pseudopotential on this center.
   74          1
                                   No pseudopotential on this center.
   75          6
                                   No pseudopotential on this center.
   76          6
                                   No pseudopotential on this center.
   77          1
                                   No pseudopotential on this center.
   78          1
                                   No pseudopotential on this center.
   79          1
                                   No pseudopotential on this center.
   80          1
                                   No pseudopotential on this center.
   81          1
                                   No pseudopotential on this center.
   82          6
                                   No pseudopotential on this center.
   83          6
                                   No pseudopotential on this center.
   84          1
                                   No pseudopotential on this center.
   85          1
                                   No pseudopotential on this center.
   86          1
                                   No pseudopotential on this center.
   87          1
                                   No pseudopotential on this center.
   88          1
                                   No pseudopotential on this center.
   89         35
                                   No pseudopotential on this center.
 ======================================================================================================
  1018 basis functions,  1767 primitive gaussians,  1064 cartesian basis functions
   184 alpha electrons      184 beta electrons
       nuclear repulsion energy      6847.1850508084 Hartrees.
 NAtoms=   89 NActive=   89 NUniq=   89 SFac= 1.00D+00 NAtFMM=   60 NAOKFM=T Big=T
 Integral buffers will be    131072 words long.
 Raffenetti 2 integral format.
 Two-electron integral symmetry is turned off.
 One-electron integrals computed using PRISM.
   1 Symmetry operations used in ECPInt.
 ECPInt:  NShTT=   66066 NPrTT=  291632 LenC2=   49348 LenP2D=  125589.
 LDataN:  DoStor=T MaxTD1= 5 Len=  102
 NBasis=  1018 RedAO= T EigKep=  4.58D-06  NBF=  1018
 NBsUse=  1018 1.00D-06 EigRej= -1.00D+00 NBFU=  1018
 ExpMin= 3.50D-02 ExpMax= 5.74D+05 ExpMxC= 5.74D+03 IAcc=3 IRadAn=         5 AccDes= 0.00D+00
 Harris functional with IExCor=  402 and IRadAn=       5 diagonalized for initial guess.
 HarFok:  IExCor=  402 AccDes= 0.00D+00 IRadAn=         5 IDoV= 1 UseB2=F ITyADJ=14
 ICtDFT=  3500011 ScaDFX=  1.000000  1.000000  1.000000  1.000000
 FoFCou: FMM=F IPFlag=           0 FMFlag=      100000 FMFlg1=        2001
         NFxFlg=           0 DoJE=T BraDBF=F KetDBF=T FulRan=T
         wScrn=  0.000000 ICntrl=       500 IOpCl=  0 I1Cent=   200000004 NGrid=           0
         NMat0=    1 NMatS0=      1 NMatT0=    0 NMatD0=    1 NMtDS0=    0 NMtDT0=    0
 Symmetry not used in FoFCou.
 Gradient too large for Newton-Raphson -- use scaled steepest descent instead.
 Gradient too large for Newton-Raphson -- use scaled steepest descent instead.
     Accept linear search using points  2 and  3.
 Gradient too large for Newton-Raphson -- use scaled steepest descent instead.
 Gradient too large for Newton-Raphson -- use scaled steepest descent instead.
     Accept linear search using points  1 and  2.
 Gradient too large for Newton-Raphson -- use scaled steepest descent instead.
 Gradient too large for Newton-Raphson -- use scaled steepest descent instead.
     Accept linear search using points  1 and  2.
 LinEq1:  Iter=  0 NonCon=     1 RMS=9.30D-06 Max=4.89D-04 NDo=     1
 AX will form     1 AO Fock derivatives at one time.
 LinEq1:  Iter=  1 NonCon=     1 RMS=5.57D-06 Max=3.36D-04 NDo=     1
 LinEq1:  Iter=  2 NonCon=     1 RMS=2.92D-06 Max=2.24D-04 NDo=     1
 LinEq1:  Iter=  3 NonCon=     1 RMS=2.86D-06 Max=1.93D-04 NDo=     1
 LinEq1:  Iter=  4 NonCon=     1 RMS=1.06D-06 Max=4.62D-05 NDo=     1
 LinEq1:  Iter=  5 NonCon=     1 RMS=8.36D-07 Max=5.08D-05 NDo=     1
 LinEq1:  Iter=  6 NonCon=     1 RMS=5.12D-07 Max=2.84D-05 NDo=     1
 LinEq1:  Iter=  7 NonCon=     1 RMS=3.90D-07 Max=2.52D-05 NDo=     1
 LinEq1:  Iter=  8 NonCon=     1 RMS=2.49D-07 Max=1.20D-05 NDo=     1
 LinEq1:  Iter=  9 NonCon=     1 RMS=1.35D-07 Max=8.61D-06 NDo=     1
 LinEq1:  Iter= 10 NonCon=     1 RMS=1.03D-07 Max=1.09D-05 NDo=     1
 LinEq1:  Iter= 11 NonCon=     1 RMS=4.79D-08 Max=4.31D-06 NDo=     1
 LinEq1:  Iter= 12 NonCon=     1 RMS=3.66D-08 Max=3.96D-06 NDo=     1
 LinEq1:  Iter= 13 NonCon=     1 RMS=2.57D-08 Max=1.11D-06 NDo=     1
 LinEq1:  Iter= 14 NonCon=     1 RMS=1.61D-08 Max=9.14D-07 NDo=     1
 LinEq1:  Iter= 15 NonCon=     1 RMS=1.37D-08 Max=1.11D-06 NDo=     1
 LinEq1:  Iter= 16 NonCon=     1 RMS=8.06D-09 Max=5.74D-07 NDo=     1
 LinEq1:  Iter= 17 NonCon=     0 RMS=4.35D-09 Max=3.39D-07 NDo=     1
 Linear equations converged to 4.375D-08 4.375D-07 after    17 iterations.
     Accept linear search using points  1 and  2.
     Minimum is close to point  2 DX= -3.38D-04 DF= -1.82D-12 DXR=  3.38D-04 DFR=  1.38D-07 which will be used.
 SCF Done:  E(RB3LYP) =  -4675.96538801     a.u. after    8 cycles
            Convg  =    0.5112D-05                    36 Fock formations.
              S**2 =  0.0000                  -V/T =  1.9823
 DoSCS=F DFT=T ScalE2(SS,OS)=  1.000000  1.000000
 Range of M.O.s used for correlation:     1  1018
 NBasis=  1018 NAE=   184 NBE=   184 NFC=     0 NFV=     0
 NROrb=   1018 NOA=   184 NOB=   184 NVA=   834 NVB=   834

 **** Warning!!: The largest alpha MO coefficient is  0.65262117D+02

 PrsmSu:  requested number of processors reduced to:  54 ShMem   1 Linda.
   1 Symmetry operations used in ECPInt.
 ECPInt:  NShTT=   66066 NPrTT=  291632 LenC2=   49348 LenP2D=  125589.
 LDataN:  DoStor=T MaxTD1= 6 Len=  172
 Number of processors reduced to   7 by ecpmxn.
 Symmetrizing basis deriv contribution to polar:
 IMax=3 JMax=2 DiffMx= 0.00D+00
 G2DrvN: will do    45 centers at a time, making    2 passes.
 Calling FoFCou, ICntrl=  3107 FMM=T I1Cent=   0 AccDes= 0.00D+00.
 Calling FoFCou, ICntrl=  3107 FMM=T I1Cent=   0 AccDes= 0.00D+00.
 End of G2Drv F.D. properties file   721 does not exist.
 End of G2Drv F.D. properties file   722 does not exist.
 End of G2Drv F.D. properties file   788 does not exist.
          IDoAtm=11100010000000000000000000000000000000111111111111
          IDoAtm=111111111111111111111111111111111111111
          Differentiating once with respect to electric field.
                with respect to dipole field.
          Differentiating once with respect to nuclear coordinates.
 CalDSu exits because no D1Ps are significant.
          There are   168 degrees of freedom in the 1st order CPHF.  IDoFFX=6 NUNeed=     3.
    168 vectors produced by pass  0 Test12= 1.53D-13 1.00D-09 XBig12= 3.89D+02 5.82D+00.
 AX will form    96 AO Fock derivatives at one time.
    168 vectors produced by pass  1 Test12= 1.53D-13 1.00D-09 XBig12= 1.53D+02 4.38D+00.
    168 vectors produced by pass  2 Test12= 1.53D-13 1.00D-09 XBig12= 1.70D+01 5.25D-01.
    168 vectors produced by pass  3 Test12= 1.53D-13 1.00D-09 XBig12= 3.53D-01 5.92D-02.
    168 vectors produced by pass  4 Test12= 1.53D-13 1.00D-09 XBig12= 4.36D-03 9.62D-03.
    158 vectors produced by pass  5 Test12= 1.53D-13 1.00D-09 XBig12= 3.62D-05 1.89D-03.
     47 vectors produced by pass  6 Test12= 1.53D-13 1.00D-09 XBig12= 2.09D-07 1.19D-04.
     15 vectors produced by pass  7 Test12= 1.53D-13 1.00D-09 XBig12= 6.74D-10 2.68D-06.
      6 vectors produced by pass  8 Test12= 1.53D-13 1.00D-09 XBig12= 2.17D-12 1.65D-07.
      3 vectors produced by pass  9 Test12= 1.53D-13 1.00D-09 XBig12= 6.84D-15 1.28D-08.
 InvSVY:  IOpt=1 It=  1 EMax= 2.84D-14
 Solved reduced A of dimension  1069 with   168 vectors.
 Isotropic polarizability for W=    0.000000      448.15 Bohr**3.
 End of Minotr F.D. properties file   721 does not exist.
 End of Minotr F.D. properties file   722 does not exist.
 End of Minotr F.D. properties file   788 does not exist.

 **********************************************************************

            Population analysis using the SCF Density.

 **********************************************************************

 Alpha  occ. eigenvalues -- -482.65090 -61.73485 -56.30442 -56.30123 -56.30115
 Alpha  occ. eigenvalues --  -19.14396 -19.11100 -19.10968 -19.10540 -19.10266
 Alpha  occ. eigenvalues --  -19.10136 -19.09761 -19.09152 -19.04810 -19.04653
 Alpha  occ. eigenvalues --  -14.46929 -14.36457 -14.36319 -10.27824 -10.27140
 Alpha  occ. eigenvalues --  -10.27032 -10.26606 -10.25707 -10.24510 -10.23722
 Alpha  occ. eigenvalues --  -10.23649 -10.23636 -10.23507 -10.23455 -10.22930
 Alpha  occ. eigenvalues --  -10.22569 -10.22540 -10.22394 -10.21839 -10.21572
 Alpha  occ. eigenvalues --  -10.21289 -10.21278 -10.21277 -10.21212 -10.21189
 Alpha  occ. eigenvalues --  -10.20228 -10.19136 -10.18806 -10.18081 -10.17593
 Alpha  occ. eigenvalues --   -8.50481  -6.52008  -6.50887  -6.50874  -2.63980
 Alpha  occ. eigenvalues --   -2.63668  -2.63657  -2.62763  -2.62763  -1.03248
 Alpha  occ. eigenvalues --   -1.02911  -1.02569  -1.01901  -1.01879  -0.97250
 Alpha  occ. eigenvalues --   -0.95737  -0.95617  -0.94977  -0.94288  -0.93686
 Alpha  occ. eigenvalues --   -0.88222  -0.86182  -0.81624  -0.81608  -0.81506
 Alpha  occ. eigenvalues --   -0.80041  -0.79386  -0.79114  -0.77683  -0.77380
 Alpha  occ. eigenvalues --   -0.77331  -0.75070  -0.72216  -0.68951  -0.67281
 Alpha  occ. eigenvalues --   -0.66305  -0.65823  -0.64427  -0.64349  -0.64079
 Alpha  occ. eigenvalues --   -0.63991  -0.63942  -0.59509  -0.58581  -0.57275
 Alpha  occ. eigenvalues --   -0.56655  -0.56508  -0.56365  -0.55921  -0.55673
 Alpha  occ. eigenvalues --   -0.55459  -0.55367  -0.55167  -0.55045  -0.54852
 Alpha  occ. eigenvalues --   -0.54720  -0.54484  -0.53693  -0.53653  -0.53408
 Alpha  occ. eigenvalues --   -0.53217  -0.52202  -0.51618  -0.50253  -0.50085
 Alpha  occ. eigenvalues --   -0.49185  -0.49115  -0.48017  -0.47989  -0.47979
 Alpha  occ. eigenvalues --   -0.47414  -0.47209  -0.46041  -0.45692  -0.45313
 Alpha  occ. eigenvalues --   -0.45244  -0.44758  -0.44677  -0.44262  -0.43947
 Alpha  occ. eigenvalues --   -0.43662  -0.43609  -0.43333  -0.42891  -0.42861
 Alpha  occ. eigenvalues --   -0.42213  -0.41968  -0.41306  -0.41188  -0.41020
 Alpha  occ. eigenvalues --   -0.40943  -0.40914  -0.40820  -0.40690  -0.40312
 Alpha  occ. eigenvalues --   -0.40016  -0.39494  -0.39122  -0.38941  -0.38549
 Alpha  occ. eigenvalues --   -0.38314  -0.37771  -0.37546  -0.37514  -0.37155
 Alpha  occ. eigenvalues --   -0.36999  -0.36785  -0.36427  -0.36196  -0.35697
 Alpha  occ. eigenvalues --   -0.35410  -0.34830  -0.34574  -0.32427  -0.31865
 Alpha  occ. eigenvalues --   -0.31061  -0.30495  -0.30313  -0.29913  -0.28667
 Alpha  occ. eigenvalues --   -0.27589  -0.27482  -0.27047  -0.26890  -0.26663
 Alpha  occ. eigenvalues --   -0.26555  -0.26453  -0.26230  -0.26143  -0.25597
 Alpha  occ. eigenvalues --   -0.25145  -0.24839  -0.24435  -0.24133  -0.23798
 Alpha  occ. eigenvalues --   -0.22740  -0.22057  -0.21809  -0.20964
 Alpha virt. eigenvalues --   -0.05213  -0.05029  -0.03067  -0.02966  -0.02616
 Alpha virt. eigenvalues --   -0.01126  -0.00936  -0.00114  -0.00054   0.00204
 Alpha virt. eigenvalues --    0.00507   0.01268   0.01840   0.01929   0.02036
 Alpha virt. eigenvalues --    0.02461   0.02738   0.02839   0.03050   0.03201
 Alpha virt. eigenvalues --    0.03314   0.03437   0.03780   0.03887   0.03953
 Alpha virt. eigenvalues --    0.04242   0.04440   0.04873   0.05007   0.05159
 Alpha virt. eigenvalues --    0.05314   0.05495   0.05737   0.05915   0.06087
 Alpha virt. eigenvalues --    0.06236   0.06419   0.06478   0.06752   0.06999
 Alpha virt. eigenvalues --    0.07051   0.07124   0.07308   0.07513   0.07776
 Alpha virt. eigenvalues --    0.08052   0.08225   0.08429   0.08684   0.08767
 Alpha virt. eigenvalues --    0.08987   0.09184   0.09442   0.09709   0.09795
 Alpha virt. eigenvalues --    0.09941   0.10200   0.10400   0.10496   0.10710
 Alpha virt. eigenvalues --    0.10802   0.10916   0.10956   0.11156   0.11290
 Alpha virt. eigenvalues --    0.11416   0.11648   0.12012   0.12137   0.12331
 Alpha virt. eigenvalues --    0.12732   0.12907   0.13071   0.13241   0.13346
 Alpha virt. eigenvalues --    0.13483   0.13779   0.13883   0.13973   0.14266
 Alpha virt. eigenvalues --    0.14529   0.14566   0.14653   0.14925   0.15031
 Alpha virt. eigenvalues --    0.15509   0.15605   0.15654   0.15805   0.16180
 Alpha virt. eigenvalues --    0.16387   0.16593   0.16713   0.16892   0.17110
 Alpha virt. eigenvalues --    0.17174   0.17437   0.17587   0.17728   0.17957
 Alpha virt. eigenvalues --    0.18145   0.18178   0.18243   0.18530   0.18718
 Alpha virt. eigenvalues --    0.18844   0.19017   0.19159   0.19330   0.19508
 Alpha virt. eigenvalues --    0.19688   0.19903   0.20052   0.20261   0.20443
 Alpha virt. eigenvalues --    0.20571   0.20638   0.20967   0.21211   0.21338
 Alpha virt. eigenvalues --    0.21456   0.21603   0.21804   0.21984   0.22068
 Alpha virt. eigenvalues --    0.22257   0.22366   0.22580   0.22662   0.22701
 Alpha virt. eigenvalues --    0.22868   0.23084   0.23423   0.23693   0.23806
 Alpha virt. eigenvalues --    0.24027   0.24185   0.24474   0.24635   0.24717
 Alpha virt. eigenvalues --    0.24826   0.25045   0.25183   0.25496   0.25526
 Alpha virt. eigenvalues --    0.25633   0.25889   0.26047   0.26210   0.26407
 Alpha virt. eigenvalues --    0.26523   0.26707   0.26797   0.27121   0.27177
 Alpha virt. eigenvalues --    0.27321   0.27357   0.27739   0.27774   0.28178
 Alpha virt. eigenvalues --    0.28258   0.28303   0.28601   0.28717   0.28766
 Alpha virt. eigenvalues --    0.28919   0.29132   0.29257   0.29587   0.29688
 Alpha virt. eigenvalues --    0.30150   0.30267   0.30408   0.30787   0.30961
 Alpha virt. eigenvalues --    0.31163   0.31502   0.31530   0.32107   0.32222
 Alpha virt. eigenvalues --    0.32378   0.32660   0.32757   0.33128   0.33317
 Alpha virt. eigenvalues --    0.33480   0.33569   0.33764   0.34017   0.34114
 Alpha virt. eigenvalues --    0.34587   0.34632   0.35118   0.35292   0.35443
 Alpha virt. eigenvalues --    0.35742   0.35802   0.36098   0.36555   0.36665
 Alpha virt. eigenvalues --    0.36951   0.37399   0.37514   0.37723   0.38255
 Alpha virt. eigenvalues --    0.38444   0.38612   0.38879   0.39023   0.39431
 Alpha virt. eigenvalues --    0.39519   0.39923   0.40051   0.40320   0.40456
 Alpha virt. eigenvalues --    0.40894   0.41142   0.41623   0.41736   0.42212
 Alpha virt. eigenvalues --    0.42275   0.42588   0.42914   0.43390   0.43560
 Alpha virt. eigenvalues --    0.43800   0.44135   0.44398   0.44805   0.44906
 Alpha virt. eigenvalues --    0.45560   0.45791   0.46012   0.46119   0.46458
 Alpha virt. eigenvalues --    0.46739   0.47354   0.47558   0.47952   0.48459
 Alpha virt. eigenvalues --    0.48767   0.49201   0.49508   0.50128   0.50369
 Alpha virt. eigenvalues --    0.50643   0.51150   0.51668   0.51998   0.52544
 Alpha virt. eigenvalues --    0.53163   0.53707   0.54090   0.54810   0.55214
 Alpha virt. eigenvalues --    0.55417   0.55769   0.55988   0.56375   0.56740
 Alpha virt. eigenvalues --    0.56891   0.57081   0.57527   0.58245   0.58959
 Alpha virt. eigenvalues --    0.59323   0.60258   0.60805   0.61158   0.62565
 Alpha virt. eigenvalues --    0.63292   0.63770   0.64340   0.64788   0.64898
 Alpha virt. eigenvalues --    0.65788   0.66401   0.67313   0.67421   0.67705
 Alpha virt. eigenvalues --    0.67885   0.68408   0.68805   0.69273   0.69371
 Alpha virt. eigenvalues --    0.69823   0.69898   0.70064   0.70205   0.71263
 Alpha virt. eigenvalues --    0.71349   0.72151   0.72434   0.73028   0.73277
 Alpha virt. eigenvalues --    0.73542   0.73825   0.74002   0.74262   0.74521
 Alpha virt. eigenvalues --    0.74982   0.75463   0.75821   0.76744   0.76815
 Alpha virt. eigenvalues --    0.77031   0.77333   0.77865   0.78144   0.78840
 Alpha virt. eigenvalues --    0.79283   0.79880   0.80573   0.80919   0.81576
 Alpha virt. eigenvalues --    0.81766   0.82282   0.83240   0.83497   0.84140
 Alpha virt. eigenvalues --    0.84505   0.84661   0.85889   0.86298   0.87112
 Alpha virt. eigenvalues --    0.87471   0.87803   0.88143   0.88429   0.88654
 Alpha virt. eigenvalues --    0.89453   0.90122   0.90283   0.90730   0.91003
 Alpha virt. eigenvalues --    0.91619   0.91946   0.92056   0.92184   0.92556
 Alpha virt. eigenvalues --    0.92897   0.93062   0.93210   0.93681   0.94705
 Alpha virt. eigenvalues --    0.94813   0.95255   0.95633   0.95673   0.96272
 Alpha virt. eigenvalues --    0.96352   0.96471   0.96767   0.97607   0.97726
 Alpha virt. eigenvalues --    0.98539   0.98969   0.99683   1.00025   1.00546
 Alpha virt. eigenvalues --    1.01023   1.01209   1.01487   1.01757   1.01845
 Alpha virt. eigenvalues --    1.02123   1.03190   1.03357   1.03573   1.04155
 Alpha virt. eigenvalues --    1.04994   1.05153   1.05669   1.06161   1.06311
 Alpha virt. eigenvalues --    1.06701   1.07177   1.07652   1.07772   1.08134
 Alpha virt. eigenvalues --    1.08559   1.08950   1.09743   1.10124   1.10649
 Alpha virt. eigenvalues --    1.11056   1.11698   1.12062   1.12211   1.12618
 Alpha virt. eigenvalues --    1.13370   1.13734   1.14053   1.14815   1.15231
 Alpha virt. eigenvalues --    1.15974   1.16446   1.16718   1.17209   1.17428
 Alpha virt. eigenvalues --    1.17690   1.18182   1.18390   1.18782   1.19288
 Alpha virt. eigenvalues --    1.19917   1.20025   1.20766   1.21089   1.21514
 Alpha virt. eigenvalues --    1.21715   1.22196   1.22346   1.22928   1.23189
 Alpha virt. eigenvalues --    1.23711   1.24436   1.25188   1.25719   1.26336
 Alpha virt. eigenvalues --    1.26571   1.26890   1.27131   1.27618   1.28042
 Alpha virt. eigenvalues --    1.29295   1.29621   1.29944   1.30409   1.30837
 Alpha virt. eigenvalues --    1.31370   1.31979   1.32292   1.32805   1.33417
 Alpha virt. eigenvalues --    1.33959   1.34309   1.36041   1.36299   1.36746
 Alpha virt. eigenvalues --    1.37278   1.37600   1.37933   1.38554   1.38580
 Alpha virt. eigenvalues --    1.38896   1.39119   1.39197   1.39953   1.40367
 Alpha virt. eigenvalues --    1.40534   1.40946   1.41326   1.41663   1.41791
 Alpha virt. eigenvalues --    1.41968   1.42561   1.43308   1.43333   1.44240
 Alpha virt. eigenvalues --    1.44545   1.44703   1.45509   1.45978   1.46301
 Alpha virt. eigenvalues --    1.46680   1.47152   1.47783   1.48367   1.49366
 Alpha virt. eigenvalues --    1.49552   1.50311   1.50574   1.50730   1.51796
 Alpha virt. eigenvalues --    1.52131   1.53113   1.53736   1.54300   1.54666
 Alpha virt. eigenvalues --    1.55223   1.55583   1.55886   1.56941   1.57488
 Alpha virt. eigenvalues --    1.58336   1.58956   1.59618   1.60338   1.60612
 Alpha virt. eigenvalues --    1.61417   1.62042   1.62570   1.62840   1.63301
 Alpha virt. eigenvalues --    1.63452   1.64232   1.64529   1.65442   1.66187
 Alpha virt. eigenvalues --    1.66789   1.67452   1.67962   1.68291   1.69068
 Alpha virt. eigenvalues --    1.69332   1.69929   1.71355   1.71711   1.72021
 Alpha virt. eigenvalues --    1.73110   1.73468   1.74566   1.75038   1.75917
 Alpha virt. eigenvalues --    1.76537   1.77092   1.78136   1.78420   1.78911
 Alpha virt. eigenvalues --    1.80008   1.80579   1.80925   1.81470   1.81811
 Alpha virt. eigenvalues --    1.82924   1.83249   1.83567   1.83660   1.83916
 Alpha virt. eigenvalues --    1.84190   1.84921   1.85279   1.85607   1.85829
 Alpha virt. eigenvalues --    1.86802   1.88138   1.88316   1.88789   1.89152
 Alpha virt. eigenvalues --    1.89163   1.89725   1.90496   1.90847   1.91626
 Alpha virt. eigenvalues --    1.91918   1.92024   1.92378   1.92748   1.92973
 Alpha virt. eigenvalues --    1.93699   1.94183   1.94414   1.94808   1.95144
 Alpha virt. eigenvalues --    1.95265   1.95604   1.95968   1.96099   1.96388
 Alpha virt. eigenvalues --    1.96620   1.97001   1.97101   1.97357   1.97809
 Alpha virt. eigenvalues --    1.98244   1.98432   1.98551   1.98841   1.99496
 Alpha virt. eigenvalues --    1.99978   1.99986   2.00535   2.00679   2.01441
 Alpha virt. eigenvalues --    2.01621   2.01903   2.02299   2.02482   2.02863
 Alpha virt. eigenvalues --    2.03113   2.03370   2.03895   2.04944   2.05141
 Alpha virt. eigenvalues --    2.05500   2.05765   2.06556   2.06701   2.07185
 Alpha virt. eigenvalues --    2.07309   2.07419   2.08165   2.08767   2.09186
 Alpha virt. eigenvalues --    2.09735   2.10131   2.10297   2.10380   2.11746
 Alpha virt. eigenvalues --    2.11823   2.12461   2.12735   2.12854   2.13032
 Alpha virt. eigenvalues --    2.13267   2.13717   2.13930   2.13972   2.14596
 Alpha virt. eigenvalues --    2.15096   2.15298   2.15554   2.16203   2.16521
 Alpha virt. eigenvalues --    2.17507   2.17840   2.18102   2.18831   2.18907
 Alpha virt. eigenvalues --    2.20640   2.21062   2.21436   2.22001   2.22398
 Alpha virt. eigenvalues --    2.23691   2.24125   2.24234   2.24680   2.25317
 Alpha virt. eigenvalues --    2.27096   2.27229   2.27842   2.28058   2.28392
 Alpha virt. eigenvalues --    2.28639   2.28710   2.29010   2.29208   2.29716
 Alpha virt. eigenvalues --    2.30026   2.30121   2.30360   2.31246   2.31501
 Alpha virt. eigenvalues --    2.32660   2.33055   2.33609   2.33787   2.34580
 Alpha virt. eigenvalues --    2.35648   2.35864   2.36125   2.36248   2.36344
 Alpha virt. eigenvalues --    2.36558   2.36971   2.37406   2.38941   2.39300
 Alpha virt. eigenvalues --    2.39729   2.40944   2.42596   2.43654   2.43950
 Alpha virt. eigenvalues --    2.45015   2.45864   2.46348   2.46510   2.47255
 Alpha virt. eigenvalues --    2.49270   2.49589   2.49821   2.49989   2.51122
 Alpha virt. eigenvalues --    2.51736   2.52402   2.52536   2.52743   2.53130
 Alpha virt. eigenvalues --    2.53417   2.53464   2.53940   2.54836   2.54884
 Alpha virt. eigenvalues --    2.55133   2.55634   2.55950   2.56448   2.57321
 Alpha virt. eigenvalues --    2.58315   2.58569   2.59002   2.59143   2.59688
 Alpha virt. eigenvalues --    2.60367   2.62151   2.62836   2.63875   2.64646
 Alpha virt. eigenvalues --    2.65336   2.65430   2.65521   2.65615   2.66621
 Alpha virt. eigenvalues --    2.66818   2.68304   2.68406   2.69280   2.69743
 Alpha virt. eigenvalues --    2.70226   2.70504   2.70711   2.71150   2.71315
 Alpha virt. eigenvalues --    2.71590   2.71870   2.71983   2.72418   2.72674
 Alpha virt. eigenvalues --    2.72875   2.73331   2.73768   2.74240   2.75245
 Alpha virt. eigenvalues --    2.75726   2.76584   2.77205   2.77334   2.78167
 Alpha virt. eigenvalues --    2.79267   2.79757   2.80422   2.80969   2.81319
 Alpha virt. eigenvalues --    2.81668   2.82019   2.82737   2.83075   2.83458
 Alpha virt. eigenvalues --    2.83744   2.83825   2.84292   2.85313   2.85639
 Alpha virt. eigenvalues --    2.86335   2.86671   2.87060   2.87660   2.88124
 Alpha virt. eigenvalues --    2.89104   2.90135   2.90195   2.91272   2.92336
 Alpha virt. eigenvalues --    2.92906   2.93869   2.95194   2.95965   2.96091
 Alpha virt. eigenvalues --    2.97251   2.97418   2.98040   2.98975   2.99488
 Alpha virt. eigenvalues --    3.00464   3.01874   3.02150   3.02968   3.04326
 Alpha virt. eigenvalues --    3.04698   3.05557   3.06257   3.07120   3.07830
 Alpha virt. eigenvalues --    3.08911   3.13429   3.18268   3.18777   3.19083
 Alpha virt. eigenvalues --    3.20369   3.23401   3.24270   3.24545   3.25010
 Alpha virt. eigenvalues --    3.25170   3.25985   3.27015   3.28115   3.28669
 Alpha virt. eigenvalues --    3.29851   3.30061   3.30631   3.31179   3.32400
 Alpha virt. eigenvalues --    3.33296   3.34350   3.35556   3.37802   3.38327
 Alpha virt. eigenvalues --    3.39992   3.40850   3.41492   3.42727   3.44430
 Alpha virt. eigenvalues --    3.44932   3.45748   3.46558   3.46879   3.47189
 Alpha virt. eigenvalues --    3.47895   3.48274   3.48586   3.48846   3.51776
 Alpha virt. eigenvalues --    3.52888   3.53966   3.54773   3.55253   3.55867
 Alpha virt. eigenvalues --    3.56842   3.57505   3.58105   3.59552   3.60717
 Alpha virt. eigenvalues --    3.63203   3.69635   3.75321   3.89223   3.89488
 Alpha virt. eigenvalues --    3.97009   8.85984  11.53273  11.73036
          Condensed to atoms (all electrons):
 Mulliken charges:
               1
     1  Zn   0.655281
     2  O   -0.887175
     3  O   -0.946357
     4  O   -0.508702
     5  O   -0.410146
     6  C    0.442534
     7  Zn   0.422588
     8  O   -0.479091
     9  O   -0.489330
    10  O   -0.432915
    11  O   -0.446576
    12  C    0.451870
    13  C    0.509736
    14  H    0.081738
    15  H    0.079069
    16  H    0.070938
    17  C   -0.174046
    18  C   -0.136865
    19  C   -0.488353
    20  C   -0.093318
    21  C   -0.094758
    22  N    0.352582
    23  H    0.139404
    24  H    0.183981
    25  H    0.135491
    26  H    0.140180
    27  H    0.189912
    28  C   -0.253346
    29  C    0.065205
    30  C   -0.573888
    31  C    0.160117
    32  C   -0.273168
    33  N    0.179743
    34  H    0.140281
    35  H    0.187814
    36  H    0.140076
    37  H    0.137990
    38  H    0.184090
    39  H    0.471679
    40  H    0.528124
    41  H    0.346909
    42  C   -0.316737
    43  C   -0.003259
    44  C   -0.144177
    45  O   -0.305035
    46  C   -0.147957
    47  C    0.052579
    48  C   -0.210153
    49  O   -0.556877
    50  H    0.135180
    51  H    0.130193
    52  H    0.138033
    53  H    0.124706
    54  H    0.113629
    55  H    0.129035
    56  H    0.123931
    57  H    0.146263
    58  H    0.176031
    59  H    0.184069
    60  N   -0.498833
    61  C   -0.325423
    62  C   -0.598575
    63  H    0.259651
    64  H    0.169644
    65  H    0.217365
    66  H    0.145406
    67  H    0.141751
    68  C    0.183725
    69  C   -0.592026
    70  H    0.188689
    71  H    0.176475
    72  H    0.163814
    73  H    0.171405
    74  H    0.163390
    75  C    0.208218
    76  C   -0.585465
    77  H    0.159235
    78  H    0.167311
    79  H    0.144710
    80  H    0.173439
    81  H    0.264930
    82  C   -0.008540
    83  C   -0.589134
    84  H    0.167561
    85  H    0.248050
    86  H    0.179578
    87  H    0.137629
    88  H    0.163219
    89  Br  -0.275947
 Sum of Mulliken charges =   0.00000
 Mulliken charges with hydrogens summed into heavy atoms:
               1
     1  Zn   0.655281
     2  O   -0.540266
     3  O   -0.474678
     4  O   -0.508702
     5  O   -0.410146
     6  C    0.524272
     7  Zn   0.422588
     8  O   -0.479091
     9  O   -0.489330
    10  O   -0.432915
    11  O   -0.446576
    12  C    0.530939
    13  C    0.580674
    17  C    0.009935
    18  C   -0.001374
    19  C   -0.348949
    20  C    0.046862
    21  C    0.095154
    22  N    0.352582
    28  C   -0.065532
    29  C    0.205281
    30  C   -0.433607
    31  C    0.298107
    32  C   -0.089078
    33  N    0.179743
    42  C   -0.051364
    43  C    0.134774
    44  C    0.094157
    45  O   -0.305035
    46  C    0.105009
    47  C    0.198841
    48  C    0.149947
    49  O   -0.028753
    60  N   -0.498833
    61  C    0.103873
    62  C   -0.094053
    68  C    0.548889
    69  C   -0.093417
    75  C    0.534764
    76  C   -0.002386
    82  C    0.407071
    83  C   -0.108707
    89  Br  -0.275947
 Electronic spatial extent (au):  <R**2>=          33990.9170
 Charge=              0.0000 electrons
 Dipole moment (field-independent basis, Debye):
    X=              3.4076    Y=             -1.4257    Z=            -10.1407  Tot=             10.7925
 Quadrupole moment (field-independent basis, Debye-Ang):
   XX=           -246.6701   YY=           -267.9508   ZZ=           -223.3325
   XY=             39.3930   XZ=            -22.4799   YZ=             13.5793
 Traceless Quadrupole moment (field-independent basis, Debye-Ang):
   XX=             -0.6856   YY=            -21.9663   ZZ=             22.6520
   XY=             39.3930   XZ=            -22.4799   YZ=             13.5793
 Octapole moment (field-independent basis, Debye-Ang**2):
  XXX=           -777.5805  YYY=            349.5095  ZZZ=            183.2687  XYY=           -209.3980
  XXY=             32.0620  XXZ=            113.1929  XZZ=            -82.6554  YZZ=            -40.6481
  YYZ=            188.2191  XYZ=             40.3656
 Hexadecapole moment (field-independent basis, Debye-Ang**3):
 XXXX=         -20937.7740 YYYY=          -9727.7235 ZZZZ=          -9629.7459 XXXY=           2007.6418
 XXXZ=           -219.9816 YYYX=           1273.6948 YYYZ=           -161.1163 ZZZX=           -907.8358
 ZZZY=             67.4608 XXYY=          -5084.8294 XXZZ=          -5163.9211 YYZZ=          -3473.8374
 XXYZ=            -74.8673 YYXZ=           -157.9842 ZZXY=             -3.1201
 N-N= 6.847185050808D+03 E-N=-2.492429899913D+04  KE= 4.760246478138D+03
  Exact polarizability: 476.446  35.664 432.918  10.778  10.182 435.100
 Approx polarizability: 655.887  59.485 624.496   2.718  14.013 610.205
   1 Symmetry operations used in ECPInt.
 ECPInt:  NShTT=   66066 NPrTT=  291632 LenC2=   49348 LenP2D=  125589.
 LDataN:  DoStor=T MaxTD1= 7 Len=  274
 Calling FoFJK, ICntrl=    100127 FMM=F ISym2X=0 I1Cent= 0 IOpClX= 0 NMat=1 NMatS=1 NMatT=0.
 -------------------------------------------------------------------
 Center     Atomic                   Forces (Hartrees/Bohr)
 Number     Number              X              Y              Z
 -------------------------------------------------------------------
      1       30          -0.000000092    0.000000177    0.000000055
      2        8          -0.000000072    0.000000385   -0.000000519
      3        8           0.000000276    0.000000529    0.000000013
      4        8          -0.000000000   -0.000000000   -0.000000000
      5        8          -0.000000000   -0.000000000   -0.000000000
      6        6          -0.000000000   -0.000000000   -0.000000000
      7       30          -0.000000180    0.000000159    0.000000100
      8        8          -0.000000000   -0.000000000   -0.000000000
      9        8          -0.000000000   -0.000000000   -0.000000000
     10        8          -0.000000000   -0.000000000   -0.000000000
     11        8          -0.000000000   -0.000000000   -0.000000000
     12        6          -0.000000000   -0.000000000   -0.000000000
     13        6          -0.000000000   -0.000000000   -0.000000000
     14        1          -0.000000000   -0.000000000   -0.000000000
     15        1          -0.000000000   -0.000000000   -0.000000000
     16        1          -0.000000000   -0.000000000   -0.000000000
     17        6          -0.000000000   -0.000000000   -0.000000000
     18        6          -0.000000000   -0.000000000   -0.000000000
     19        6          -0.000000000   -0.000000000   -0.000000000
     20        6          -0.000000000   -0.000000000   -0.000000000
     21        6          -0.000000000   -0.000000000   -0.000000000
     22        7          -0.000000000   -0.000000000   -0.000000000
     23        1          -0.000000000   -0.000000000   -0.000000000
     24        1          -0.000000000   -0.000000000   -0.000000000
     25        1          -0.000000000   -0.000000000   -0.000000000
     26        1          -0.000000000   -0.000000000   -0.000000000
     27        1          -0.000000000   -0.000000000   -0.000000000
     28        6          -0.000000000   -0.000000000   -0.000000000
     29        6          -0.000000000   -0.000000000   -0.000000000
     30        6          -0.000000000   -0.000000000   -0.000000000
     31        6          -0.000000000   -0.000000000   -0.000000000
     32        6          -0.000000000   -0.000000000   -0.000000000
     33        7          -0.000000000   -0.000000000   -0.000000000
     34        1          -0.000000000   -0.000000000   -0.000000000
     35        1          -0.000000000   -0.000000000   -0.000000000
     36        1          -0.000000000   -0.000000000   -0.000000000
     37        1          -0.000000000   -0.000000000   -0.000000000
     38        1          -0.000000000   -0.000000000   -0.000000000
     39        1          -0.000000352   -0.000000508   -0.000000043
     40        1          -0.000000142   -0.000000058    0.000000014
     41        1           0.000000105   -0.000000406    0.000000427
     42        6          -0.000000294   -0.000000722   -0.000000174
     43        6           0.000000307    0.000000656    0.000000293
     44        6          -0.000000002   -0.000000281   -0.000000274
     45        8           0.000000041    0.000000136   -0.000000044
     46        6          -0.000000597   -0.000000536    0.000000156
     47        6          -0.000000318    0.000000478    0.000000508
     48        6          -0.000000169    0.000000021   -0.000000232
     49        8           0.000000318   -0.000000166   -0.000000090
     50        1           0.000000020    0.000000065   -0.000000039
     51        1           0.000000155    0.000000497    0.000000042
     52        1          -0.000000151   -0.000000423   -0.000000026
     53        1          -0.000000041    0.000000102    0.000000126
     54        1           0.000000033    0.000000056    0.000000043
     55        1           0.000000339   -0.000000090   -0.000000262
     56        1           0.000000141    0.000000463    0.000000030
     57        1           0.000000245   -0.000000251   -0.000000169
     58        1           0.000000046    0.000000027    0.000000032
     59        1           0.000000081   -0.000000015    0.000000137
     60        7           0.000000003   -0.000000066   -0.000000239
     61        6           0.000000458    0.000000201    0.000000401
     62        6          -0.000000367   -0.000000251   -0.000000121
     63        1           0.000000015   -0.000000050   -0.000000083
     64        1          -0.000000399   -0.000000091   -0.000000175
     65        1           0.000000021    0.000000083    0.000000086
     66        1           0.000000229    0.000000091    0.000000089
     67        1           0.000000008    0.000000043   -0.000000152
     68        6          -0.000000001    0.000000093   -0.000000028
     69        6          -0.000000340   -0.000000098    0.000000371
     70        1          -0.000000151   -0.000000216   -0.000000033
     71        1           0.000000255    0.000000021    0.000000098
     72        1           0.000000040    0.000000056   -0.000000288
     73        1           0.000000101    0.000000021    0.000000053
     74        1           0.000000071    0.000000121   -0.000000059
     75        6          -0.000000316    0.000000395    0.000000149
     76        6          -0.000000032    0.000000146    0.000000080
     77        1           0.000000118   -0.000000194   -0.000000102
     78        1           0.000000115   -0.000000087    0.000000031
     79        1          -0.000000081   -0.000000009   -0.000000021
     80        1           0.000000082   -0.000000036    0.000000052
     81        1           0.000000057   -0.000000171   -0.000000167
     82        6           0.000000385   -0.000000068   -0.000000047
     83        6          -0.000000258    0.000000023   -0.000000720
     84        1          -0.000000109    0.000000134    0.000000054
     85        1           0.000000017   -0.000000021    0.000000023
     86        1           0.000000266   -0.000000096    0.000000251
     87        1          -0.000000183   -0.000000074    0.000000442
     88        1           0.000000022    0.000000103    0.000000047
     89       35           0.000000059   -0.000000076   -0.000000058
 -------------------------------------------------------------------
 Cartesian Forces:  Max     0.000000722 RMS     0.000000182

 GradGradGradGradGradGradGradGradGradGradGradGradGradGradGradGradGradGrad
 Berny optimization.
 Search for a local minimum.
 Step number   1 out of a maximum of  277
 All quantities printed in internal units (Hartrees-Bohrs-Radians)
 Second derivative matrix not updated -- analytic derivatives used.
 ITU=  0
     Eigenvalues ---    0.00000   0.00001   0.00003   0.00004   0.00007
     Eigenvalues ---    0.00011   0.00016   0.00027   0.00034   0.00046
     Eigenvalues ---    0.00054   0.00061   0.00084   0.00092   0.00103
     Eigenvalues ---    0.00136   0.00146   0.00169   0.00191   0.00260
     Eigenvalues ---    0.00279   0.00354   0.00372   0.00403   0.00451
     Eigenvalues ---    0.00478   0.00527   0.00541   0.00651   0.00678
     Eigenvalues ---    0.00906   0.00928   0.01178   0.01225   0.01300
     Eigenvalues ---    0.01323   0.01450   0.01504   0.01592   0.01876
     Eigenvalues ---    0.01944   0.02129   0.02552   0.02590   0.02857
     Eigenvalues ---    0.02958   0.03074   0.03442   0.03519   0.03590
     Eigenvalues ---    0.03641   0.03760   0.04193   0.04358   0.04473
     Eigenvalues ---    0.04703   0.05064   0.05320   0.05380   0.05524
     Eigenvalues ---    0.05677   0.05767   0.05989   0.05997   0.06065
     Eigenvalues ---    0.06320   0.06506   0.06521   0.06611   0.06877
     Eigenvalues ---    0.07080   0.07220   0.07456   0.07667   0.07805
     Eigenvalues ---    0.07870   0.08039   0.08182   0.08351   0.08719
     Eigenvalues ---    0.09736   0.09824   0.09910   0.10077   0.10242
     Eigenvalues ---    0.10351   0.10759   0.10860   0.11182   0.11302
     Eigenvalues ---    0.11440   0.11591   0.12685   0.12880   0.13796
     Eigenvalues ---    0.13879   0.13999   0.14061   0.14130   0.14334
     Eigenvalues ---    0.15014   0.15166   0.15479   0.15662   0.16271
     Eigenvalues ---    0.16845   0.16883   0.17370   0.17782   0.18395
     Eigenvalues ---    0.20343   0.20443   0.20633   0.20705   0.21443
     Eigenvalues ---    0.22321   0.24158   0.25571   0.32273   0.32800
     Eigenvalues ---    0.33889   0.34719   0.35722   0.39984   0.42130
     Eigenvalues ---    0.47657   0.48676   0.49652   0.51724   0.53059
     Eigenvalues ---    0.59945   0.61417   0.61937   0.63423   0.63652
     Eigenvalues ---    0.65107   0.68352   0.72049   0.73689   0.74526
     Eigenvalues ---    0.75739   0.77077   0.78581   0.78945   0.79520
     Eigenvalues ---    0.81732   0.82431   0.82743   0.83059   0.83601
     Eigenvalues ---    0.84559   0.85448   0.86394   0.86944   0.87475
     Eigenvalues ---    0.87918   0.89625   0.91687   0.92024   0.94358
     Eigenvalues ---    0.95179   0.96019   0.98216   1.05854   1.46664
 RFO step:  Lambda= 0.00000000D+00 EMin= 4.82235160D-06
 Linear search not attempted -- first point.
 Variable       Old X    -DE/DX   Delta X   Delta X   Delta X     New X
                                 (Linear)    (Quad)   (Total)
    X1       -4.91874  -0.00000   0.00000  -0.00000  -0.00000  -4.91874
    Y1       -0.30097   0.00000   0.00000   0.00000   0.00000  -0.30097
    Z1       -0.35705   0.00000   0.00000   0.00000   0.00000  -0.35705
    X2       -2.28999  -0.00000   0.00000  -0.00000  -0.00000  -2.29000
    Y2       -2.61554   0.00000   0.00000   0.00000   0.00000  -2.61554
    Z2       -1.84792  -0.00000   0.00000  -0.00001  -0.00001  -1.84792
    X3        1.77612   0.00000   0.00000  -0.00000  -0.00000   1.77612
    Y3        0.52949   0.00000   0.00000  -0.00000  -0.00000   0.52949
    Z3       -1.44176   0.00000   0.00000   0.00000   0.00000  -1.44176
    X4       -3.66700  -0.00000   0.00000   0.00000   0.00000  -3.66700
    Y4       -1.20542  -0.00000   0.00000   0.00000   0.00000  -1.20542
    Z4        3.25893  -0.00000   0.00000   0.00000   0.00000   3.25893
    X5       -0.70429  -0.00000   0.00000   0.00000   0.00000  -0.70429
    Y5        1.91028  -0.00000   0.00000   0.00000   0.00000   1.91028
    Z5        3.62255  -0.00000   0.00000   0.00000   0.00000   3.62255
    X6       -2.01960  -0.00000   0.00000   0.00000   0.00000  -2.01960
    Y6        0.10841  -0.00000   0.00000   0.00000   0.00000   0.10841
    Z6        4.45388  -0.00000   0.00000   0.00000   0.00000   4.45388
    X7       -0.34589  -0.00000   0.00000  -0.00000  -0.00000  -0.34590
    Y7        3.39811   0.00000   0.00000   0.00000   0.00000   3.39811
    Z7       -0.14601   0.00000   0.00000   0.00000   0.00000  -0.14600
    X8       -3.08040  -0.00000   0.00000   0.00000   0.00000  -3.08040
    Y8        6.08644  -0.00000   0.00000   0.00000   0.00000   6.08644
    Z8        1.02173  -0.00000   0.00000   0.00000   0.00000   1.02173
    X9       -6.32125  -0.00000   0.00000   0.00000   0.00000  -6.32125
    Y9        3.26012  -0.00000   0.00000   0.00000   0.00000   3.26012
    Z9        1.36098  -0.00000   0.00000   0.00000   0.00000   1.36098
   X10       -2.05141  -0.00000   0.00000   0.00000   0.00000  -2.05141
   Y10        3.75065  -0.00000   0.00000   0.00000   0.00000   3.75065
   Z10       -3.89425  -0.00000   0.00000   0.00000   0.00000  -3.89425
   X11       -5.65738  -0.00000   0.00000   0.00000   0.00000  -5.65738
   Y11        1.39334  -0.00000   0.00000   0.00000   0.00000   1.39334
   Z11       -3.80093  -0.00000   0.00000   0.00000   0.00000  -3.80093
   X12       -5.32107  -0.00000   0.00000   0.00000   0.00000  -5.32107
   Y12        5.42457  -0.00000   0.00000   0.00000   0.00000   5.42457
   Z12        1.58880  -0.00000   0.00000   0.00000   0.00000   1.58880
   X13       -4.06455  -0.00000   0.00000   0.00000   0.00000  -4.06455
   Y13        2.87770  -0.00000   0.00000   0.00000   0.00000   2.87770
   Z13       -4.83599  -0.00000   0.00000   0.00000   0.00000  -4.83599
   X14       -1.71602  -0.00000   0.00000   0.00000   0.00000  -1.71602
   Y14       -0.44338  -0.00000   0.00000   0.00000   0.00000  -0.44338
   Z14        6.46269  -0.00000   0.00000   0.00000   0.00000   6.46269
   X15       -6.55099  -0.00000   0.00000   0.00000   0.00000  -6.55099
   Y15        6.93289  -0.00000   0.00000   0.00000   0.00000   6.93289
   Z15        2.38283  -0.00000   0.00000   0.00000   0.00000   2.38283
   X16       -4.51509  -0.00000   0.00000   0.00000   0.00000  -4.51509
   Y16        3.47021  -0.00000   0.00000   0.00000   0.00000   3.47021
   Z16       -6.80091  -0.00000   0.00000   0.00000   0.00000  -6.80091
   X17        4.89701  -0.00000   0.00000   0.00000   0.00000   4.89701
   Y17        5.40406  -0.00000   0.00000   0.00000   0.00000   5.40406
   Z17       -1.04149  -0.00000   0.00000   0.00000   0.00000  -1.04149
   X18        7.00826  -0.00000   0.00000   0.00000   0.00000   7.00826
   Y18        7.00675  -0.00000   0.00000   0.00000   0.00000   7.00675
   Z18       -1.01544  -0.00000   0.00000   0.00000   0.00000  -1.01544
   X19        6.73884  -0.00000   0.00000   0.00000   0.00000   6.73884
   Y19        9.46134  -0.00000   0.00000   0.00000   0.00000   9.46134
   Z19       -0.03998  -0.00000   0.00000   0.00000   0.00000  -0.03998
   X20        4.36501  -0.00000   0.00000   0.00000   0.00000   4.36501
   Y20       10.23291  -0.00000   0.00000   0.00000   0.00000  10.23291
   Z20        0.86765  -0.00000   0.00000   0.00000   0.00000   0.86765
   X21        2.34497  -0.00000   0.00000   0.00000   0.00000   2.34497
   Y21        8.51926  -0.00000   0.00000   0.00000   0.00000   8.51926
   Z21        0.77554  -0.00000   0.00000   0.00000   0.00000   0.77554
   X22        2.61528  -0.00000   0.00000   0.00000   0.00000   2.61528
   Y22        6.15252  -0.00000   0.00000   0.00000   0.00000   6.15252
   Z22       -0.15606  -0.00000   0.00000   0.00000   0.00000  -0.15606
   X23        8.35087  -0.00000   0.00000   0.00000   0.00000   8.35087
   Y23       10.75330  -0.00000   0.00000   0.00000   0.00000  10.75330
   Z23        0.01090  -0.00000   0.00000   0.00000   0.00000   0.01090
   X24        4.97028  -0.00000   0.00000   0.00000   0.00000   4.97028
   Y24        3.46979  -0.00000   0.00000   0.00000   0.00000   3.46979
   Z24       -1.76621  -0.00000   0.00000   0.00000   0.00000  -1.76621
   X25        8.81639  -0.00000   0.00000   0.00000   0.00000   8.81639
   Y25        6.33064  -0.00000   0.00000   0.00000   0.00000   6.33064
   Z25       -1.74506  -0.00000   0.00000   0.00000   0.00000  -1.74506
   X26        4.07193  -0.00000   0.00000   0.00000   0.00000   4.07193
   Y26       12.12530  -0.00000   0.00000   0.00000   0.00000  12.12530
   Z26        1.63740  -0.00000   0.00000   0.00000   0.00000   1.63740
   X27        0.45209  -0.00000   0.00000   0.00000   0.00000   0.45209
   Y27        9.00184  -0.00000   0.00000   0.00000   0.00000   9.00184
   Z27        1.44468  -0.00000   0.00000   0.00000   0.00000   1.44468
   X28       -8.94747  -0.00000   0.00000   0.00000   0.00000  -8.94747
   Y28       -3.75931  -0.00000   0.00000   0.00000   0.00000  -3.75931
   Z28        1.92471  -0.00000   0.00000   0.00000   0.00000   1.92471
   X29      -11.13792  -0.00000   0.00000   0.00000   0.00000 -11.13792
   Y29       -5.24484  -0.00000   0.00000   0.00000   0.00000  -5.24484
   Z29        2.05762  -0.00000   0.00000   0.00000   0.00000   2.05762
   X30      -12.76454  -0.00000   0.00000   0.00000   0.00000 -12.76454
   Y30       -5.31626  -0.00000   0.00000   0.00000   0.00000  -5.31626
   Z30       -0.04021  -0.00000   0.00000   0.00000   0.00000  -0.04021
   X31      -12.14445  -0.00000   0.00000   0.00000   0.00000 -12.14445
   Y31       -3.89762  -0.00000   0.00000   0.00000   0.00000  -3.89762
   Z31       -2.19724  -0.00000   0.00000   0.00000   0.00000  -2.19724
   X32       -9.92068  -0.00000   0.00000   0.00000   0.00000  -9.92068
   Y32       -2.45560  -0.00000   0.00000   0.00000   0.00000  -2.45560
   Z32       -2.18360  -0.00000   0.00000   0.00000   0.00000  -2.18360
   X33       -8.35500  -0.00000   0.00000   0.00000   0.00000  -8.35500
   Y33       -2.39626  -0.00000   0.00000   0.00000   0.00000  -2.39626
   Z33       -0.15913  -0.00000   0.00000   0.00000   0.00000  -0.15913
   X34      -14.48640  -0.00000   0.00000   0.00000   0.00000 -14.48640
   Y34       -6.45744  -0.00000   0.00000   0.00000   0.00000  -6.45744
   Z34        0.00586  -0.00000   0.00000   0.00000   0.00000   0.00586
   X35       -7.60690  -0.00000   0.00000   0.00000   0.00000  -7.60690
   Y35       -3.62292  -0.00000   0.00000   0.00000   0.00000  -3.62292
   Z35        3.48999  -0.00000   0.00000   0.00000   0.00000   3.48999
   X36      -11.54815  -0.00000   0.00000   0.00000   0.00000 -11.54815
   Y36       -6.31596  -0.00000   0.00000   0.00000   0.00000  -6.31596
   Z36        3.77316  -0.00000   0.00000   0.00000   0.00000   3.77316
   X37      -13.35563  -0.00000   0.00000   0.00000   0.00000 -13.35563
   Y37       -3.89645  -0.00000   0.00000   0.00000   0.00000  -3.89645
   Z37       -3.86803  -0.00000   0.00000   0.00000   0.00000  -3.86803
   X38       -9.33569  -0.00000   0.00000   0.00000   0.00000  -9.33569
   Y38       -1.30653  -0.00000   0.00000   0.00000   0.00000  -1.30653
   Z38       -3.79691  -0.00000   0.00000   0.00000   0.00000  -3.79691
   X39        0.48478  -0.00000   0.00000  -0.00000  -0.00000   0.48478
   Y39       -0.81905  -0.00000   0.00000  -0.00000  -0.00000  -0.81906
   Z39       -1.60033  -0.00000   0.00000  -0.00000  -0.00000  -1.60034
   X40        4.20535  -0.00000   0.00000  -0.00001  -0.00001   4.20534
   Y40       -0.50206  -0.00000   0.00000  -0.00000  -0.00000  -0.50206
   Z40       -0.99221   0.00000   0.00000  -0.00003  -0.00003  -0.99224
   X41       -2.00004   0.00000   0.00000   0.00000   0.00000  -2.00004
   Y41       -3.88841  -0.00000   0.00000  -0.00000  -0.00000  -3.88841
   Z41       -0.57000   0.00000   0.00000  -0.00001  -0.00001  -0.57000
   X42       13.58258  -0.00000   0.00000   0.00015   0.00015  13.58273
   Y42       -3.63500  -0.00000   0.00000   0.00012   0.00012  -3.63489
   Z42        9.91121  -0.00000   0.00000  -0.00013  -0.00013   9.91108
   X43       12.53335   0.00000   0.00000   0.00015   0.00015  12.53350
   Y43       -4.53747   0.00000   0.00000   0.00010   0.00010  -4.53737
   Z43        7.80106   0.00000   0.00000  -0.00013  -0.00013   7.80094
   X44       12.22199  -0.00000   0.00000   0.00010   0.00010  12.22209
   Y44       -3.05231  -0.00000   0.00000   0.00010   0.00010  -3.05222
   Z44        5.40633  -0.00000   0.00000  -0.00012  -0.00012   5.40620
   X45        9.66750   0.00000   0.00000   0.00009   0.00009   9.66759
   Y45       -3.21889   0.00000   0.00000   0.00005   0.00005  -3.21884
   Z45        4.59488  -0.00000   0.00000  -0.00009  -0.00009   4.59479
   X46        9.23427  -0.00000   0.00000   0.00005   0.00005   9.23431
   Y46       -2.05400  -0.00000   0.00000   0.00005   0.00005  -2.05395
   Z46        2.21224   0.00000   0.00000  -0.00009  -0.00009   2.21215
   X47        6.45596  -0.00000   0.00000   0.00004   0.00004   6.45600
   Y47       -2.36514   0.00000   0.00000   0.00001   0.00001  -2.36513
   Z47        1.48382   0.00000   0.00000  -0.00005  -0.00005   1.48376
   X48        5.55452  -0.00000   0.00000   0.00008   0.00008   5.55461
   Y48       -5.10769   0.00000   0.00000  -0.00000  -0.00000  -5.10770
   Z48        1.56438  -0.00000   0.00000  -0.00005  -0.00005   1.56433
   X49        6.08058   0.00000   0.00000   0.00000   0.00000   6.08058
   Y49       -1.20621  -0.00000   0.00000   0.00000   0.00000  -1.20621
   Z49       -0.86343  -0.00000   0.00000  -0.00005  -0.00005  -0.86348
   X50       13.82065   0.00000   0.00000   0.00019   0.00019  13.82084
   Y50       -4.80564   0.00000   0.00000   0.00012   0.00012  -4.80552
   Z50       11.58039  -0.00000   0.00000  -0.00014  -0.00014  11.58025
   X51       14.24163   0.00000   0.00000   0.00012   0.00012  14.24174
   Y51       -1.69173   0.00000   0.00000   0.00013   0.00013  -1.69160
   Z51       10.04182   0.00000   0.00000  -0.00014  -0.00014  10.04168
   X52       11.86447  -0.00000   0.00000   0.00019   0.00019  11.86466
   Y52       -6.48297  -0.00000   0.00000   0.00009   0.00009  -6.48288
   Z52        7.72385  -0.00000   0.00000  -0.00012  -0.00012   7.72372
   X53       13.46617  -0.00000   0.00000   0.00010   0.00010  13.46627
   Y53       -3.83403   0.00000   0.00000   0.00012   0.00012  -3.83391
   Z53        3.92306   0.00000   0.00000  -0.00013  -0.00013   3.92293
   X54       12.76911   0.00000   0.00000   0.00007   0.00007  12.76918
   Y54       -1.06399   0.00000   0.00000   0.00011   0.00011  -1.06388
   Z54        5.70174   0.00000   0.00000  -0.00012  -0.00012   5.70162
   X55       10.43945   0.00000   0.00000   0.00004   0.00004  10.43950
   Y55       -2.91522  -0.00000   0.00000   0.00007   0.00007  -2.91515
   Z55        0.75117  -0.00000   0.00000  -0.00010  -0.00010   0.75107
   X56        9.66495   0.00000   0.00000   0.00002   0.00002   9.66496
   Y56       -0.02130   0.00000   0.00000   0.00006   0.00006  -0.02124
   Z56        2.29921   0.00000   0.00000  -0.00009  -0.00009   2.29912
   X57        5.30577   0.00000   0.00000   0.00005   0.00005   5.30582
   Y57       -1.43532  -0.00000   0.00000  -0.00001  -0.00001  -1.43533
   Z57        2.96128  -0.00000   0.00000  -0.00004  -0.00004   2.96123
   X58        3.57014   0.00000   0.00000   0.00008   0.00008   3.57022
   Y58       -5.24683   0.00000   0.00000  -0.00003  -0.00003  -5.24686
   Z58        1.03749   0.00000   0.00000  -0.00002  -0.00002   1.03747
   X59        5.90130   0.00000   0.00000   0.00012   0.00012   5.90142
[...]
 72,-0.00026898,-0.00020331,0.00018554,-0.00002995,-0.00000580,-0.00001
 929,0.00003019,-0.00005781,0.00010387,0.00005483,0.00003966,0.00005774
 ,0.00015735,0.00024177,-0.00006748,0.00004928,-0.00006997,-0.00098957,
 -0.00078872,-0.00004930,0.00015019,0.00015847,-0.00024907,-0.00129220,
 0.00034653,-0.00122909,0.00021631,0.00031944,-0.00006521,0.00001896,-0
 .00002956,-0.00000813,0.00018123,-0.00021053,-0.00000791,0.00005874,0.
 00011498,0.00015455,0.00008353,-0.00021050,-0.00002119,0.00004968,-0.0
 0008621,0.00009686,0.00000864,-0.00000096,0.00006128,-0.00004746,0.000
 04438,-0.00007924,-0.00006250,0.00000762,-0.00009666,-0.00006028,0.000
 09865,-0.00013829,0.00001836,0.00000567,-0.00002971,-0.00906164,-0.002
 50829,0.02144312,-0.08182283,-0.01282144,0.08767576,0.00061014,0.00041
 630,-0.00087515,-0.00203075,-0.00377482,-0.00096127,0.01112518,0.00296
 283,-0.02229832,0.08632403,0.00002454,-0.00003867,-0.00003213,-0.00003
 487,0.00007875,0.00006204,0.00009031,0.00020463,0.00002686,0.,0.,0.,0.
 ,0.,0.,0.,0.,0.,-0.00009203,-0.00006886,-0.00000243,0.,0.,0.,0.,0.,0.,
 0.,0.,0.,0.,0.,0.,0.,0.,0.,0.,0.,0.,0.,0.,0.,0.,0.,0.,0.,0.,0.,0.,0.,0
 .,0.,0.,0.,0.,0.,0.,0.,0.,0.,0.,0.,0.,0.,0.,0.,0.,0.,0.,0.,0.,0.,0.,0.
 ,0.,0.,0.,0.,0.,0.,0.,0.,0.,0.,0.,0.,0.,0.,0.,0.,0.,0.,0.,0.,0.,0.,0.,
 0.,0.,0.,0.,0.,0.,0.,0.,0.,0.,0.,0.,0.,0.,0.,0.,0.,-0.00000040,-0.0000
 6581,-0.00006491,-0.00001966,-0.00019962,0.00003342,0.00001389,-0.0000
 0743,-0.00001506,0.00000123,-0.00000032,0.00000066,0.00000245,-0.00000
 196,-0.00000065,-0.00001826,-0.00000435,-0.00000637,0.00001969,0.00001
 880,0.00001068,0.00000174,-0.00003608,-0.00000719,0.00007336,0.0000339
 6,0.00002825,0.00001664,-0.00004110,-0.00011209,0.00001203,0.00044741,
 -0.00000214,-0.00000043,0.00000017,0.00000060,0.00000004,0.00000078,0.
 00000041,-0.00000138,0.00000146,-0.00000111,0.00000115,-0.00000151,-0.
 00000110,0.00000273,0.00000354,0.00000200,-0.00001153,-0.00000204,0.00
 000018,0.00000472,0.00001595,0.00001505,0.00000443,0.00001235,-0.00000
 130,0.00000601,0.00000766,-0.00001025,-0.00000223,0.00002460,0.0000054
 0,0.00075160,0.00083141,-0.00032844,0.00001707,-0.00012230,-0.00017473
 ,0.00004745,0.00015664,0.00013100,0.00000270,-0.00016626,-0.00003297,-
 0.00002230,0.00001078,0.00004852,-0.00008959,-0.00002513,-0.00005489,-
 0.00009875,-0.00001952,-0.00028613,0.00003325,0.00003911,0.00000772,-0
 .00053887,0.00035958,0.00023098,-0.00039055,0.00010409,-0.00038139,0.0
 0007017,0.00047460,-0.00008541,0.00017056,0.00007640,-0.00020099,0.000
 05800,-0.00001805,0.00001712,0.00011959,-0.00072426,-0.00031666,0.0002
 4460,-0.00001991,0.00016442,0.00020578,0.00010975,0.00022244,0.0000032
 8,-0.00022954,0.00009173,0.00001551,-0.00005926,0.00003222,-0.00002590
 ,0.00001993,-0.00008435,-0.00009729,-0.00000607,-0.00006703,-0.0000932
 1,0.00011379,-0.00013755,0.00004362,-0.00000623,-0.00005336,-0.0072214
 5,-0.00313476,0.02597834,-0.01335884,-0.05613450,0.03231924,0.00065959
 ,0.00079247,0.00003765,-0.00359269,-0.00347248,-0.00115994,-0.00342311
 ,-0.00206120,0.00709876,0.01783357,0.05629266,-0.00010573,0.00003117,-
 0.00000032,0.00012955,0.00001992,0.00000018,0.00041654,-0.00014870,-0.
 00001220,0.,0.,0.,0.,0.,0.,0.,0.,0.,-0.00015380,0.00014577,0.00003225,
 0.,0.,0.,0.,0.,0.,0.,0.,0.,0.,0.,0.,0.,0.,0.,0.,0.,0.,0.,0.,0.,0.,0.,0
 .,0.,0.,0.,0.,0.,0.,0.,0.,0.,0.,0.,0.,0.,0.,0.,0.,0.,0.,0.,0.,0.,0.,0.
 ,0.,0.,0.,0.,0.,0.,0.,0.,0.,0.,0.,0.,0.,0.,0.,0.,0.,0.,0.,0.,0.,0.,0.,
 0.,0.,0.,0.,0.,0.,0.,0.,0.,0.,0.,0.,0.,0.,0.,0.,0.,0.,0.,0.,0.,0.,0.,-
 0.00008778,-0.00006147,-0.00001217,-0.00048390,0.00021034,-0.00003233,
 -0.00002192,-0.00000684,0.00000314,-0.00001046,0.00001089,-0.00001209,
 -0.00001975,-0.00000799,0.00001098,0.00014512,0.00001540,0.00004242,-0
 .00015054,0.00004898,-0.00018456,0.00003425,-0.00001190,0.00015513,0.0
 0019881,-0.00021751,0.00040639,-0.00001416,-0.00001587,-0.00010461,0.0
 0029872,0.00010609,-0.00067426,0.00000172,0.00000016,-0.00000827,0.000
 00280,-0.00000336,0.00000083,0.00000760,-0.00000166,-0.00000092,-0.000
 01457,0.00000326,0.00000598,-0.00001336,-0.00001253,-0.00000342,0.0000
 2858,-0.00002612,-0.00000636,0.00000586,0.00000867,0.00000319,0.000016
 11,0.00004346,-0.00011487,-0.00000731,-0.00000529,0.00001529,0.0000049
 4,0.00004512,-0.00000439,0.00028639,0.00046281,0.00024691,-0.00017453,
 0.00013968,-0.00000473,0.00009278,0.00004890,0.00011946,-0.00009209,-0
 .00001937,-0.00001009,0.00004235,-0.00004269,0.00004155,-0.00003668,-0
 .00004277,-0.00000297,0.00002575,-0.00000998,-0.00015114,0.00007738,-0
 .00002960,0.00005300,-0.00088019,0.00034658,-0.00122202,-0.00021702,-0
 .00025299,0.00011976,-0.00110087,-0.00082578,-0.00043039,-0.00011231,-
 0.00024838,0.00025004,-0.00005877,0.00002805,-0.00004300,-0.00011380,-
 0.00004490,-0.00003799,-0.00004101,-0.00001432,-0.00003640,0.00009257,
 -0.00019703,0.00009729,0.00003181,0.00005757,0.00002977,-0.00000371,0.
 00000796,-0.00004088,0.00011754,0.00007598,0.00004016,0.00003220,0.000
 00890,0.00000354,-0.00001394,-0.00005958,0.00005094,-0.00001536,-0.000
 00294,0.00001004,-0.00102951,0.00012487,0.00055762,0.08853403,0.033517
 72,-0.27058909,0.00022731,0.00046141,0.00024901,-0.00019320,0.00006166
 ,0.00140817,0.00785271,0.00163614,-0.01675786,-0.09562725,-0.03759132,
 0.29577590,-0.00002336,0.00000633,0.00008144,0.00003574,0.00003632,-0.
 00002770,-0.00001057,0.00007587,-0.00038377,0.,0.,0.,0.,0.,0.,0.,0.,0.
 ,0.00002860,0.00018224,0.00015551,0.,0.,0.,0.,0.,0.,0.,0.,0.,0.,0.,0.,
 0.,0.,0.,0.,0.,0.,0.,0.,0.,0.,0.,0.,0.,0.,0.,0.,0.,0.,0.,0.,0.,0.,0.,0
 .,0.,0.,0.,0.,0.,0.,0.,0.,0.,0.,0.,0.,0.,0.,0.,0.,0.,0.,0.,0.,0.,0.,0.
 ,0.,0.,0.,0.,0.,0.,0.,0.,0.,0.,0.,0.,0.,0.,0.,0.,0.,0.,0.,0.,0.,0.,0.,
 0.,0.,0.,0.,0.,0.,0.,0.,0.,0.,0.,-0.00005374,-0.00005555,0.00001600,0.
 00036346,-0.00019618,0.00022340,0.00000166,-0.00000343,-0.00000881,0.0
 0000301,-0.00000055,0.00000273,0.00000167,0.00000039,-0.00000463,-0.00
 002715,0.00001802,0.00000059,0.00001410,-0.00004851,0.00003233,-0.0000
 1083,0.00010403,-0.00002283,-0.00009531,0.00001597,-0.00009805,0.00001
 059,0.00000572,0.00006158,-0.00032255,-0.00014483,0.00021182,-0.000000
 26,-0.00000084,0.00000212,-0.00000095,-0.00000039,-0.00000102,-0.00000
 180,-0.00000205,0.00000220,0.00000437,-0.00000029,-0.00000264,0.000001
 91,-0.00000547,-0.00000537,0.00000542,0.00000741,0.00000555,-0.0000008
 3,-0.00003915,-0.00003383,0.00000425,-0.00001162,0.00002889,-0.0000001
 0,-0.00000825,-0.00000570,0.00000066,-0.00001471,0.00000052,0.00135781
 ,0.00077943,-0.00025566,0.00009460,-0.00026138,-0.00036514,-0.00132733
 ,0.00075066,-0.00053327,-0.00027193,-0.00017547,0.00033016,0.00004385,
 0.00012349,0.00020016,-0.00017819,0.00005467,-0.00003575,-0.00160972,0
 .00085146,-0.00129129,0.00007998,0.00008826,0.00001377,-0.00001175,-0.
 00001638,-0.00001403,-0.00001879,0.00004007,-0.00004293,0.00002256,0.0
 0003263,-0.00008018,0.00001867,0.00001924,-0.00004969,-0.00002733,0.00
 002157,-0.00001358,-0.00005772,-0.00008037,0.00004601,0.00004294,0.000
 02050,0.00004406,-0.00001381,-0.00031026,0.00011336,0.00003330,0.00003
 370,0.00001429,-0.00003356,0.00016761,0.00008604,-0.00009802,0.0001271
 6,0.00000532,-0.00001193,0.00001463,-0.00001698,0.00002753,0.00001767,
 -0.00005833,-0.00002383,-0.00002572,0.00000346,0.01037995,-0.02215970,
 -0.00865836,-0.08909680,0.09288581,0.04080854,-0.00279856,-0.00407790,
 0.00040569,0.00081131,0.00088767,-0.00024721,-0.00943173,0.02083960,0.
 00964546,-0.00506196,0.00856317,0.00195212,0.09712114,-0.00003173,-0.0
 0005168,0.00001385,0.00003732,0.00013878,0.00006895,0.00036704,0.00005
 467,-0.00017821,0.,0.,0.,0.,0.,0.,0.,0.,0.,-0.00011437,0.00009437,0.00
 007790,0.,0.,0.,0.,0.,0.,0.,0.,0.,0.,0.,0.,0.,0.,0.,0.,0.,0.,0.,0.,0.,
 0.,0.,0.,0.,0.,0.,0.,0.,0.,0.,0.,0.,0.,0.,0.,0.,0.,0.,0.,0.,0.,0.,0.,0
 .,0.,0.,0.,0.,0.,0.,0.,0.,0.,0.,0.,0.,0.,0.,0.,0.,0.,0.,0.,0.,0.,0.,0.
 ,0.,0.,0.,0.,0.,0.,0.,0.,0.,0.,0.,0.,0.,0.,0.,0.,0.,0.,0.,0.,0.,0.,0.,
 0.,0.,-0.00009873,-0.00012299,-0.00003924,-0.00023659,-0.00008989,0.00
 021835,0.00000206,-0.00001675,-0.00002205,-0.00000284,0.00000432,-0.00
 000431,-0.00001188,-0.00000520,0.00000411,0.00004790,-0.00000520,-0.00
 000438,-0.00007288,0.00005124,-0.00005766,0.00006263,-0.00005005,0.000
 01748,0.00017884,-0.00014995,0.00037774,0.00007847,-0.00013916,-0.0002
 2383,-0.00005132,0.00058189,-0.00059477,0.00000113,-0.00000018,-0.0000
 0294,0.00000145,0.00000029,0.00000083,0.00000252,0.00000168,-0.0000029
 1,-0.00000860,0.00000044,0.00000436,-0.00000330,0.00000124,0.00000263,
 -0.00001474,-0.00000734,0.00000194,0.00000669,0.00002657,0.00002088,0.
 00002192,0.00005349,-0.00008129,-0.00000982,0.00001009,0.00001967,-0.0
 0001713,0.00008131,0.00001380,0.00026411,0.00082900,-0.00001699,-0.000
 50332,-0.00050663,-0.00064252,0.00058799,-0.00090264,0.00065550,-0.000
 26893,-0.00011056,0.00008031,-0.00002471,0.00011577,0.00011957,0.00030
 396,0.00008058,0.00008420,0.00181236,0.00049934,0.00064956,0.00031518,
 -0.00004198,0.00012707,-0.00023480,-0.00015930,0.00011306,0.00011806,0
 .00012640,-0.00002933,0.00002928,-0.00002206,-0.00012094,-0.00001502,0
 .00001402,-0.00009092,-0.00004528,0.00001661,-0.00004829,-0.00009255,-
 0.00006296,0.00008656,0.00002312,0.00002865,0.00006224,-0.00001879,-0.
 00003012,-0.00004000,0.00000626,0.00001406,0.00002163,-0.00000208,0.00
 018847,0.00011662,-0.00014815,0.00003914,0.00000530,-0.00002693,0.0000
 0242,-0.00000533,0.00002936,0.00002431,-0.00008915,0.00000862,-0.00005
 188,-0.00003710,0.01088567,-0.02187587,-0.00714026,0.08950092,-0.24642
 208,-0.08263505,-0.00405743,-0.00228103,0.00045350,0.00029562,0.000785
 71,-0.00041732,0.00278780,-0.00624140,-0.00253539,-0.00267738,0.006323
 13,0.00217996,-0.09902554,0.26895563,0.00004334,-0.00002748,0.00011520
 ,-0.00008938,-0.00004913,-0.00008862,-0.00049990,-0.00002232,-0.000175
 77,0.,0.,0.,0.,0.,0.,0.,0.,0.,0.00026593,-0.00001130,0.00010814,0.,0.,
 0.,0.,0.,0.,0.,0.,0.,0.,0.,0.,0.,0.,0.,0.,0.,0.,0.,0.,0.,0.,0.,0.,0.,0
 .,0.,0.,0.,0.,0.,0.,0.,0.,0.,0.,0.,0.,0.,0.,0.,0.,0.,0.,0.,0.,0.,0.,0.
 ,0.,0.,0.,0.,0.,0.,0.,0.,0.,0.,0.,0.,0.,0.,0.,0.,0.,0.,0.,0.,0.,0.,0.,
 0.,0.,0.,0.,0.,0.,0.,0.,0.,0.,0.,0.,0.,0.,0.,0.,0.,0.,0.,0.,0.,0.00009
 376,0.00008037,0.00009435,0.00052482,-0.00002229,-0.00013255,0.0000122
 5,0.00001907,0.00000440,0.00000487,-0.00000553,0.00000767,0.00001050,0
 .00000663,-0.00000651,-0.00007378,0.00000027,-0.00001233,0.00009564,-0
 .00006193,0.00009741,-0.00006376,0.00007485,-0.00003436,-0.00017280,0.
 00021937,-0.00035691,-0.00002832,0.00005868,0.00016804,-0.00009141,-0.
 00045989,0.00048413,-0.00000057,-0.00000059,0.00000483,-0.00000139,0.0
 0000078,-0.00000131,-0.00000356,-0.00000105,0.00000211,0.00001028,-0.0
 0000121,-0.00000305,0.00000642,0.00000193,-0.00000153,0.00000778,0.000
 00392,0.00000422,-0.00001050,-0.00003044,-0.00002731,-0.00000938,-0.00
 004760,0.00010811,0.00000752,-0.00000430,-0.00001635,0.00000475,-0.000
 05979,-0.00000215,0.00064046,-0.00039611,0.00014491,-0.00006064,-0.000
 49631,0.00026246,-0.00079788,-0.00051362,-0.00002865,0.00003781,0.0000
 8126,0.00020539,-0.00000012,0.00018033,-0.00006498,0.00025987,0.000104
 51,0.00015705,-0.00065710,0.00109372,-0.00018340,0.00032611,0.00008777
 ,0.00003701,0.00012626,-0.00026139,-0.00016371,0.00012449,-0.00012700,
 0.00012464,0.00018682,-0.00014930,-0.00017624,-0.00006960,0.00000143,0
 .00001970,-0.00001063,0.00000621,0.00000382,-0.00011211,0.00029480,0.0
 0009915,-0.00016918,0.00005225,-0.00007383,-0.00020379,-0.00015328,0.0
 0003059,0.00003384,0.00000661,0.00000466,0.00000987,0.00005999,-0.0000
 2044,-0.00000956,0.00000325,-0.00001113,0.00000013,0.00001006,-0.00002
 271,-0.00000276,0.00001585,0.00000237,-0.00001538,0.00000197,0.0000387
 9,-0.00265223,0.00163801,-0.00012599,0.04077130,-0.08337497,-0.0826699
 9,0.00071254,0.00068174,0.00102934,-0.00062982,0.00054760,0.00035196,-
 0.00708700,0.01738140,0.00716395,0.01129258,-0.02559182,-0.00927626,-0
 .04208926,0.08939582,0.08340970,0.00030443,-0.00019771,0.00007281,-0.0
 0028881,0.00013669,-0.00006636,0.00002721,0.00034889,-0.00034611,0.,0.
 ,0.,0.,0.,0.,0.,0.,0.,0.00007894,-0.00035574,0.00010708,0.,0.,0.,0.,0.
 ,0.,0.,0.,0.,0.,0.,0.,0.,0.,0.,0.,0.,0.,0.,0.,0.,0.,0.,0.,0.,0.,0.,0.,
 0.,0.,0.,0.,0.,0.,0.,0.,0.,0.,0.,0.,0.,0.,0.,0.,0.,0.,0.,0.,0.,0.,0.,0
 .,0.,0.,0.,0.,0.,0.,0.,0.,0.,0.,0.,0.,0.,0.,0.,0.,0.,0.,0.,0.,0.,0.,0.
 ,0.,0.,0.,0.,0.,0.,0.,0.,0.,0.,0.,0.,0.,0.,0.,0.,0.,0.,0.00006482,-0.0
 0013346,0.00016602,-0.00009512,-0.00023423,0.00024934,0.00019206,0.000
 04489,0.00002090,0.00001066,-0.00003995,-0.00001689,0.00011215,0.00003
 923,0.00000933,-0.00025987,0.00016841,0.00023798,0.00065853,-0.0003119
 4,-0.00008504,-0.00107428,-0.00143308,-0.00113104,-0.00098492,0.004420
 09,0.00379028,-0.04043817,0.01111204,0.01673016,0.00078049,-0.00040136
 ,-0.00135098,-0.00001827,0.00000921,0.00000237,-0.00001709,-0.00000937
 ,-0.00000482,-0.00002857,-0.00001772,0.00005086,0.00016225,0.00000529,
 -0.00008099,0.00005452,-0.00004802,-0.00003010,0.00122416,-0.00086366,
 -0.00084730,0.00045541,-0.00029012,-0.00040320,0.00158535,0.00009555,-
 0.00123075,-0.00702601,0.01565723,0.02046440,-0.00223326,0.00343872,0.
 00258465,0.00013713,-0.00011194,-0.00015120,-0.00003282,0.00003353,0.0
 0002763,0.00001150,-0.00003334,-0.00001150,-0.00002163,-0.00000591,0.0
 0009675,0.00002830,-0.00002763,0.00001779,-0.00000392,-0.00000847,0.00
 001868,0.00001019,0.00002498,0.00000023,0.00000135,0.00001021,-0.00001
 589,-0.00001063,0.00004123,0.00006369,-0.00003710,0.00000295,-0.000037
 30,0.00000684,0.00001394,-0.00002806,0.00002296,-0.00000320,0.00000684
 ,0.00001470,-0.00000469,-0.00000192,0.00002355,0.00001327,-0.00000323,
 -0.00001376,0.00000500,0.00000265,-0.00044361,-0.00004237,0.00016410,0
 .00003060,0.00029089,-0.00012050,0.00005436,-0.00001198,-0.00008953,0.
 00006879,0.00005900,-0.00016205,-0.00008058,-0.00004335,-0.00004238,-0
 .00061159,-0.00001930,-0.00029489,-0.00011139,0.00001053,-0.00012000,-
 0.00029039,0.00040040,-0.00000626,0.00000242,-0.00002345,-0.00011803,-
 0.00001292,-0.00001668,-0.00018541,-0.00004749,0.00000380,0.00001952,0
 .00005725,0.00012218,-0.00001066,0.00003027,0.00001186,-0.00000707,0.0
 0000667,-0.00005059,0.00002798,0.04826523,-0.00026335,-0.00006892,-0.0
 0017905,0.00022604,0.00031770,0.00025386,0.00081916,-0.00025968,0.0006
 4514,0.,0.,0.,0.,0.,0.,0.,0.,0.,-0.00041908,0.00035839,-0.00018823,0.,
 0.,0.,0.,0.,0.,0.,0.,0.,0.,0.,0.,0.,0.,0.,0.,0.,0.,0.,0.,0.,0.,0.,0.,0
 .,0.,0.,0.,0.,0.,0.,0.,0.,0.,0.,0.,0.,0.,0.,0.,0.,0.,0.,0.,0.,0.,0.,0.
 ,0.,0.,0.,0.,0.,0.,0.,0.,0.,0.,0.,0.,0.,0.,0.,0.,0.,0.,0.,0.,0.,0.,0.,
 0.,0.,0.,0.,0.,0.,0.,0.,0.,0.,0.,0.,0.,0.,0.,0.,0.,0.,0.,0.,0.,0.,-0.0
 0029860,-0.00017896,-0.00017394,-0.00104526,0.00042178,-0.00083596,-0.
 00008386,-0.00012173,-0.00009573,-0.00003713,0.00010252,-0.00005723,-0
 .00015885,-0.00015425,0.00005380,0.00069470,-0.00000629,0.00015851,-0.
 00072171,0.00069919,-0.00060440,0.00069166,-0.00060785,0.00099923,0.01
 703778,-0.01849423,-0.02564072,0.01357975,-0.03366773,-0.01493551,0.00
 031942,0.00132726,0.00152410,0.00000686,-0.00000592,-0.00004226,0.0000
 2601,0.00000775,0.00001379,0.00003712,0.00002841,-0.00006090,-0.000138
 31,-0.00003067,0.00005117,-0.00004171,0.00000241,0.00000694,-0.0009158
 0,-0.00109464,-0.00099277,0.00040866,0.00011286,0.00002360,-0.00348310
 ,-0.00552297,0.00201531,0.00368712,-0.00540455,-0.00753593,0.00114619,
 -0.00111161,-0.00172339,-0.00005751,0.00013873,0.00025375,0.00005498,-
 0.00006140,-0.00001873,-0.00002338,0.00002694,0.00002141,-0.00002285,-
 0.00003667,-0.00019848,0.00001087,0.00000328,0.00001794,-0.00000111,0.
 00001381,-0.00002922,0.00000845,0.00000359,-0.00002164,0.00000991,-0.0
 0000375,0.00002202,0.00009604,0.00000876,-0.00001108,-0.00000019,-0.00
 001499,0.00000425,0.00000627,0.00001403,-0.00001550,-0.00001458,-0.000
 00894,0.00003707,-0.00000726,0.00001490,0.00000036,-0.00001185,-0.0000
 2890,0.00000003,0.00001702,0.00001593,0.00002220,-0.00006878,-0.000225
 76,0.00001443,0.00015167,0.00021032,0.00012069,-0.00000993,0.00000759,
 0.00008805,0.00000420,0.00004139,-0.00002113,0.00014361,0.00001008,0.0
 0007632,0.00000896,-0.00032920,-0.00000212,0.00001815,-0.00004725,-0.0
 0014575,0.00028490,-0.00054868,-0.00006769,-0.00005548,0.00007372,0.00
 005791,0.00005198,-0.00000068,0.00014576,-0.00014748,-0.00013004,-0.00
 000352,0.00010128,0.00003086,-0.00014757,-0.00001470,-0.00002455,0.000
 06108,0.00000218,0.00007034,-0.00003711,-0.03214963,0.06421441,-0.0001
 5897,-0.00005090,-0.00037143,0.00003249,0.00039840,0.00050951,0.000635
 93,-0.00024014,0.00077954,0.,0.,0.,0.,0.,0.,0.,0.,0.,-0.00026701,0.000
 26006,-0.00037407,0.,0.,0.,0.,0.,0.,0.,0.,0.,0.,0.,0.,0.,0.,0.,0.,0.,0
 .,0.,0.,0.,0.,0.,0.,0.,0.,0.,0.,0.,0.,0.,0.,0.,0.,0.,0.,0.,0.,0.,0.,0.
 ,0.,0.,0.,0.,0.,0.,0.,0.,0.,0.,0.,0.,0.,0.,0.,0.,0.,0.,0.,0.,0.,0.,0.,
 0.,0.,0.,0.,0.,0.,0.,0.,0.,0.,0.,0.,0.,0.,0.,0.,0.,0.,0.,0.,0.,0.,0.,0
 .,0.,0.,0.,0.,0.,-0.00020579,-0.00015544,-0.00027387,-0.00108504,0.000
 51992,-0.00064486,-0.00009816,-0.00012571,-0.00014533,-0.00007696,0.00
 004537,-0.00001928,-0.00006643,-0.00001901,0.00002717,0.00064951,-0.00
 002686,0.00025230,-0.00076462,0.00010330,-0.00012864,0.00115430,-0.000
 18296,0.00064945,0.00672344,-0.00933147,-0.01393436,0.01703399,-0.0132
 0681,-0.04718645,-0.00055206,0.00155102,0.00521108,0.00001441,-0.00000
 104,-0.00003301,0.00001636,-0.00001439,-0.00000170,0.00005389,-0.00002
 872,-0.00001496,-0.00012267,0.00003999,0.00004383,-0.00005911,-0.00005
 008,-0.00001085,-0.00103007,-0.00025778,-0.00028847,0.00000743,0.00006
 733,0.00013128,-0.00234497,-0.00227611,0.00236379,0.00280194,-0.004613
 25,-0.00489703,0.01588475,-0.01920410,-0.01264073,-0.00013313,0.000342
 42,-0.00013982,0.00016272,-0.00025434,-0.00008642,-0.00005562,0.000056
 82,0.00006252,0.00001043,-0.00008839,-0.00029593,-0.00000753,0.0000070
 4,0.00002327,0.00000983,0.00002566,-0.00005902,0.00002054,-0.00001728,
 -0.00002836,0.00001231,-0.00000045,0.00000145,-0.00010276,0.00003186,0
 .00011492,0.00002885,0.00000822,-0.00002465,0.00003573,0.00000916,-0.0
 0002542,0.00000153,-0.00001286,-0.00004294,-0.00000459,0.00001722,-0.0
 0002388,-0.00002870,-0.00002360,0.00003383,0.00000752,0.00001603,0.000
 03707,-0.00028513,-0.00013234,0.00013701,0.00001018,0.00033998,0.00034
 703,0.00002632,0.00001118,0.00008775,0.00002073,0.00009066,-0.00017463
 ,-0.00004799,-0.00005579,-0.00008043,-0.00033707,-0.00007549,-0.000581
 75,-0.00005531,-0.00007646,-0.00046502,0.00008320,0.00018078,-0.000064
 52,-0.00005510,0.00001558,-0.00008782,-0.00024126,0.00021879,0.0004274
 1,0.00011909,-0.00052660,-0.00062734,-0.00004181,-0.00020480,-0.000005
 68,0.00004790,0.00008962,-0.00000178,-0.00001155,0.00013908,-0.0000712
 0,-0.03773925,0.04680608,0.07197783\\0.,0.,0.,0.,0.,-0.00000001,0.,0.,
 0.,0.,0.,0.,0.,0.,0.,0.,0.,0.,0.,0.,0.,0.,0.,0.,0.,0.,0.,0.,0.,0.,0.,0
 .,0.,0.,0.,0.,0.,0.,0.,0.,0.,0.,0.,0.,0.,0.,0.,0.,0.,0.,0.,0.,0.,0.,0.
 ,0.,0.,0.,0.,0.,0.,0.,0.,0.,0.,0.,0.,0.,0.,0.,0.,0.,0.,0.,0.,0.,0.,0.,
 0.,0.,0.,0.,0.,0.,0.,0.,0.,0.,0.,0.,0.,0.,0.,0.,0.,0.,0.,0.,0.,0.,0.,0
 .,0.,0.,0.,0.,0.,0.,0.,0.,0.,0.,0.,0.,0.,0.,0.,0.,0.,0.,0.,0.,0.,0.,0.
 ,0.,0.,0.,0.,0.,0.,0.,0.,0.,0.,0.,0.,0.,0.,0.,0.,0.,0.,0.,0.,0.,0.,0.,
 0.,0.,0.,0.,0.,0.,0.,0.,0.,0.,0.,0.,0.,0.,0.,0.,0.,0.,0.,0.,0.,0.,0.,0
 .,0.,0.,0.,0.,0.,0.,0.,0.,0.,0.,0.,0.,0.,0.,0.,0.,0.,0.,0.,0.,0.,0.,0.
 ,0.,0.,0.,0.,0.,0.,0.,0.,0.,0.,0.,0.,0.,0.,0.,0.,0.,0.,0.,0.,0.,0.,0.,
 0.,0.,0.,0.,0.,0.,0.,0.,0.,0.,0.,0.,0.,0.,0.,0.,0.,0.,0.,0.,0.,0.,0.,0
 .,0.,0.,0.,0.,0.,0.,0.,0.,0.,0.,0.,0.,0.,0.,0.,0.,0.,0.,0.,0.,0.,0.,0.
 ,0.,0.\\\@


 ORIGINALITY CONSISTS NOT IN SAYING WHAT NO ONE HAS EVER SAID BEFORE, 
 BUT IN SAYING WHAT YOU THINK YOUR SELF.

                                    -- JAMES F. STEPHEN
 Job cpu time:       5 days 16 hours  0 minutes 23.5 seconds.
 Elapsed time:       0 days  2 hours  9 minutes 25.1 seconds.
 File lengths (MBytes):  RWF=   6023 Int=      0 D2E=      0 Chk=     77 Scr=      2
 Normal termination of Gaussian 16 at Mon Sep 11 19:26:27 2023.
