 Entering Gaussian System, Link 0=g16
 Input=AGE_CO2_TS_QST3_opt_freq.com
 Output=AGE_CO2_TS_QST3_opt_freq.log
 Initial command:
 /opt/ohpc/pub/apps/gaussian/avx2/g16/l1.exe "/scratch/g16-tmp/Gau-2177609.inp" -scrdir="/scratch/g16-tmp/"
 Entering Link 1 = /opt/ohpc/pub/apps/gaussian/avx2/g16/l1.exe PID=   2177610.
  
 Copyright (c) 1988-2017, Gaussian, Inc.  All Rights Reserved.
  
 This is part of the Gaussian(R) 16 program.  It is based on
 the Gaussian(R) 09 system (copyright 2009, Gaussian, Inc.),
 the Gaussian(R) 03 system (copyright 2003, Gaussian, Inc.),
 the Gaussian(R) 98 system (copyright 1998, Gaussian, Inc.),
 the Gaussian(R) 94 system (copyright 1995, Gaussian, Inc.),
 the Gaussian 92(TM) system (copyright 1992, Gaussian, Inc.),
 the Gaussian 90(TM) system (copyright 1990, Gaussian, Inc.),
 the Gaussian 88(TM) system (copyright 1988, Gaussian, Inc.),
 the Gaussian 86(TM) system (copyright 1986, Carnegie Mellon
 University), and the Gaussian 82(TM) system (copyright 1983,
 Carnegie Mellon University). Gaussian is a federally registered
 trademark of Gaussian, Inc.
  
 This software contains proprietary and confidential information,
 including trade secrets, belonging to Gaussian, Inc.
  
 This software is provided under written license and may be
 used, copied, transmitted, or stored only in accord with that
 written license.
  
 The following legend is applicable only to US Government
 contracts under FAR:
  
                    RESTRICTED RIGHTS LEGEND
  
 Use, reproduction and disclosure by the US Government is
 subject to restrictions as set forth in subparagraphs (a)
 and (c) of the Commercial Computer Software - Restricted
 Rights clause in FAR 52.227-19.
  
 Gaussian, Inc.
 340 Quinnipiac St., Bldg. 40, Wallingford CT 06492
  
  
 ---------------------------------------------------------------
 Warning -- This program may not be used in any manner that
 competes with the business of Gaussian, Inc. or will provide
 assistance to any competitor of Gaussian, Inc.  The licensee
 of this program is prohibited from giving any competitor of
 Gaussian, Inc. access to this program.  By using this program,
 the user acknowledges that Gaussian, Inc. is engaged in the
 business of creating and licensing software in the field of
 computational chemistry and represents and warrants to the
 licensee that it is not a competitor of Gaussian, Inc. and that
 it will not use this program in any manner prohibited above.
 ---------------------------------------------------------------
  

 Cite this work as:
 Gaussian 16, Revision B.01,
 M. J. Frisch, G. W. Trucks, H. B. Schlegel, G. E. Scuseria, 
 M. A. Robb, J. R. Cheeseman, G. Scalmani, V. Barone, 
 G. A. Petersson, H. Nakatsuji, X. Li, M. Caricato, A. V. Marenich, 
 J. Bloino, B. G. Janesko, R. Gomperts, B. Mennucci, H. P. Hratchian, 
 J. V. Ortiz, A. F. Izmaylov, J. L. Sonnenberg, D. Williams-Young, 
 F. Ding, F. Lipparini, F. Egidi, J. Goings, B. Peng, A. Petrone, 
 T. Henderson, D. Ranasinghe, V. G. Zakrzewski, J. Gao, N. Rega, 
 G. Zheng, W. Liang, M. Hada, M. Ehara, K. Toyota, R. Fukuda, 
 J. Hasegawa, M. Ishida, T. Nakajima, Y. Honda, O. Kitao, H. Nakai, 
 T. Vreven, K. Throssell, J. A. Montgomery, Jr., J. E. Peralta, 
 F. Ogliaro, M. J. Bearpark, J. J. Heyd, E. N. Brothers, K. N. Kudin, 
 V. N. Staroverov, T. A. Keith, R. Kobayashi, J. Normand, 
 K. Raghavachari, A. P. Rendell, J. C. Burant, S. S. Iyengar, 
 J. Tomasi, M. Cossi, J. M. Millam, M. Klene, C. Adamo, R. Cammi, 
 J. W. Ochterski, R. L. Martin, K. Morokuma, O. Farkas, 
 J. B. Foresman, and D. J. Fox, Gaussian, Inc., Wallingford CT, 2016.
 
 ******************************************
 Gaussian 16:  ES64L-G16RevB.01 20-Dec-2017
                 7-Aug-2023 
 ******************************************
 %nprocshared=64
 Will use up to   64 processors via shared memory.
 %mem=64GB
 %chk=AGE_CO2_TS_QST3_opt_freq.chk
 ----------------------------------------------------------------------
 # opt=(calcall,tight,qst3,cartesian) freq b3lyp/gen nosymm scf=(qc,max
 cycle=1024) pseudo=read
 ----------------------------------------------------------------------
 1/5=1,7=10,10=4,18=20,26=3,27=203,38=1/1,3;
 2/9=110,12=2,15=1,17=6,18=5,40=1/2;
 3/5=7,11=2,16=1,17=8,25=1,30=1,71=2,74=-5,140=1/1,2,3;
 4//1;
 5/5=2,7=1024,8=3,38=5/8;
 8/6=4,10=90,11=11/1;
 11/6=1,8=1,9=11,15=111,16=1,31=1/1,2,10;
 10/6=1,31=1/2;
 6/7=2,8=2,9=2,10=2,18=1,28=1/1;
 7/10=1,25=1,30=1/1,2,3,16;
 1/5=1,7=10,10=4,18=20,26=3,27=203/3(3);
 2/9=110,15=1/2;
 7/8=1,9=1,25=1,30=1,44=-1/16;
 99//99;
 2/9=110,15=1/2;
 3/5=7,6=1,11=2,16=1,17=8,25=1,30=1,71=2,74=-5,82=7,140=1/1,2,3;
 4/5=5,16=3,69=1/1;
 5/5=2,7=1024,8=3,38=5/8;
 8/6=4,10=90,11=11/1;
 11/6=1,8=1,9=11,15=111,16=1,31=1/1,2,10;
 10/6=1,31=1/2;
 7/10=1,25=1,30=1/1,2,3,16;
 1/5=1,7=10,10=4,18=20,26=3,27=203/3(-8);
 2/9=110,15=1/2;
 6/7=2,8=2,9=2,10=2,18=1,19=2,28=1/1;
 7/8=1,9=1,25=1,30=1,44=-1/16;
 99//99;
 ----------------
 AGE_CO2_opt_freq
 ----------------
 Symbolic Z-matrix:
 Charge =  0 Multiplicity = 1
 C                    -10.75086  -2.95581  -1.21215 
 C                    -9.4825   -2.64145  -1.48668 
 C                    -8.38528  -2.59783  -0.46562 
 O                    -7.72152  -1.33862  -0.55395 
 C                    -6.61554  -1.22856   0.32684 
 C                    -6.06283   0.17098   0.20431 
 C                    -4.92631   0.47907  -0.67462 
 O                    -4.74762   0.35866   0.74975 
 H                    -11.50567  -3.00599  -1.99142 
 H                    -11.07798  -3.1774   -0.19848 
 H                    -9.18094  -2.41248  -2.508 
 H                    -7.65694  -3.40523  -0.65903 
 H                    -8.78977  -2.74869   0.5478 
 H                    -5.83199  -1.96203   0.07768 
 H                    -6.93023  -1.41094   1.36766 
 H                    -6.76749   0.96908   0.43989 
 H                    -4.80386   1.48664  -1.06828 
 H                    -4.47241  -0.3182   -1.26177 
 C                    -3.53605   1.52912   3.06274 
 O                    -4.46225   1.21722   3.70611 
 O                    -2.59285   1.85901   2.45485 
 
 Add virtual bond connecting atoms C19        and O8         Dist= 5.41D+00.
 ----------------
 AGC_opt_freq_sin
 ----------------
 Symbolic Z-matrix:
 Charge =  0 Multiplicity = 1
 C                    -1.22892   4.60656  -4.02688 
 C                    -1.2547    4.1919   -2.75819 
 C                    -0.40478   4.77201  -1.66806 
 O                     0.30013   3.71277  -1.01866 
 C                     1.05007   4.14284   0.09469 
 C                     1.8229    2.96564   0.65509 
 C                     2.46421   3.2401    2.02575 
 O                     2.96902   2.65952  -0.16726 
 H                    -1.88519   4.17742  -4.77814 
 H                    -0.55095   5.38999  -4.3585 
 H                    -1.93268   3.39645  -2.45192 
 H                    -1.0396    5.28956  -0.92692 
 H                     0.30481   5.50793  -2.07632 
 H                     0.38355   4.53716   0.88389 
 H                     1.75795   4.94139  -0.18078 
 H                     1.17952   2.07899   0.66991 
 H                     1.9164    2.79647   2.85874 
 H                     2.61293   4.3109    2.2117 
 C                     4.04185   2.36991   0.61649 
 O                     5.09622   1.96611   0.21869 
 O                     3.74742   2.60684   1.92798 
 
 ------------------------
 AGE_CO2_TS_QST3_opt_freq
 ------------------------
 Symbolic Z-matrix:
 Charge =  0 Multiplicity = 1
 C                    -10.75086  -2.95581  -1.21215 
 C                    -9.4825   -2.64145  -1.48668 
 C                    -8.38528  -2.59783  -0.46562 
 O                    -7.72152  -1.33862  -0.55395 
 C                    -6.61554  -1.22856   0.32684 
 C                    -6.06283   0.17098   0.20431 
 C                    -4.87667   0.52417  -0.84022 
 O                    -4.96499   0.20006   1.32084 
 H                    -11.50567  -3.00599  -1.99142 
 H                    -11.07798  -3.1774   -0.19848 
 H                    -9.18094  -2.41248  -2.508 
 H                    -7.65694  -3.40523  -0.65903 
 H                    -8.78977  -2.74869   0.5478 
 H                    -5.83199  -1.96203   0.07768 
 H                    -6.93023  -1.41094   1.36766 
 H                    -6.76749   0.96908   0.43989 
 H                    -4.75422   1.53174  -1.23388 
 H                    -4.42276  -0.2731   -1.42737 
 C                    -3.55883   0.94194   1.01811 
 O                    -2.99766   0.51108   2.18152 
 O                    -2.99952   1.6209    0.02105 
 

 GradGradGradGradGradGradGradGradGradGradGradGradGradGradGradGradGradGrad
 Berny optimization.
 Initialization pass.
                           ----------------------------
                           !    Initial Parameters    !
                           ! (Angstroms and Degrees)  !
 --------------------------                            --------------------------
 ! Name  Definition         TS        Reactant Product Derivative Info.         !
 --------------------------------------------------------------------------------
 ! R1    R(1,2)             1.3353    1.3353    1.335  calculate D2E/DX2 analyti!
 ! R2    R(1,9)             1.0861    1.0861    1.0859 calculate D2E/DX2 analyti!
 ! R3    R(1,10)            1.0879    1.0879    1.0878 calculate D2E/DX2 analyti!
 ! R4    R(2,3)             1.4995    1.4995    1.4991 calculate D2E/DX2 analyti!
 ! R5    R(2,11)            1.0893    1.0893    1.0891 calculate D2E/DX2 analyti!
 ! R6    R(3,4)             1.4262    1.4262    1.4285 calculate D2E/DX2 analyti!
 ! R7    R(3,12)            1.1044    1.1044    1.1046 calculate D2E/DX2 analyti!
 ! R8    R(3,13)            1.1015    1.1015    1.1008 calculate D2E/DX2 analyti!
 ! R9    R(4,5)             1.4181    1.4181    1.4096 calculate D2E/DX2 analyti!
 ! R10   R(5,6)             1.5097    1.5097    1.5156 calculate D2E/DX2 analyti!
 ! R11   R(5,14)            1.1018    1.1018    1.1057 calculate D2E/DX2 analyti!
 ! R12   R(5,15)            1.1025    1.1025    1.1021 calculate D2E/DX2 analyti!
 ! R13   R(6,7)             1.6195    1.4694    1.538  calculate D2E/DX2 analyti!
 ! R14   R(6,8)             1.5661    1.4361    1.4435 calculate D2E/DX2 analyti!
 ! R15   R(6,16)            1.0904    1.0904    1.0956 calculate D2E/DX2 analyti!
 ! R16   R(7,8)             2.187     1.4406    2.324  calculate D2E/DX2 analyti!
 ! R17   R(7,17)            1.0887    1.0887    1.0912 calculate D2E/DX2 analyti!
 ! R18   R(7,18)            1.0892    1.0892    1.097  calculate D2E/DX2 analyti!
 ! R19   R(7,21)            2.3384    4.1404    1.4343 calculate D2E/DX2 analyti!
 ! R20   R(8,19)            1.6184    2.8614    1.3598 calculate D2E/DX2 analyti!
 ! R21   R(19,20)           1.3616    1.1701    1.1971 calculate D2E/DX2 analyti!
 ! R22   R(19,21)           1.3296    1.1696    1.3649 calculate D2E/DX2 analyti!
 ! A1    A(2,1,9)         121.5695  121.5695  121.5365 calculate D2E/DX2 analyti!
 ! A2    A(2,1,10)        121.6765  121.6765  121.6974 calculate D2E/DX2 analyti!
 ! A3    A(9,1,10)        116.7537  116.7537  116.7661 calculate D2E/DX2 analyti!
 ! A4    A(1,2,3)         124.1897  124.1897  124.0515 calculate D2E/DX2 analyti!
 ! A5    A(1,2,11)        120.3478  120.3478  120.4056 calculate D2E/DX2 analyti!
 ! A6    A(3,2,11)        115.4537  115.4537  115.5352 calculate D2E/DX2 analyti!
 ! A7    A(2,3,4)         108.9092  108.9092  108.8695 calculate D2E/DX2 analyti!
 ! A8    A(2,3,12)        110.0019  110.0019  110.0838 calculate D2E/DX2 analyti!
 ! A9    A(2,3,13)        110.7192  110.7192  110.7608 calculate D2E/DX2 analyti!
 ! A10   A(4,3,12)        109.129   109.129   109.0265 calculate D2E/DX2 analyti!
 ! A11   A(4,3,13)        110.4139  110.4139  110.2568 calculate D2E/DX2 analyti!
 ! A12   A(12,3,13)       107.6474  107.6474  107.8226 calculate D2E/DX2 analyti!
 ! A13   A(3,4,5)         113.1427  113.1427  113.289  calculate D2E/DX2 analyti!
 ! A14   A(4,5,6)         107.8819  107.8819  109.0475 calculate D2E/DX2 analyti!
 ! A15   A(4,5,14)        111.253   111.253   110.6005 calculate D2E/DX2 analyti!
 ! A16   A(4,5,15)        110.5421  110.5421  111.4301 calculate D2E/DX2 analyti!
 ! A17   A(6,5,14)        109.7798  109.7798  108.6911 calculate D2E/DX2 analyti!
 ! A18   A(6,5,15)        109.5399  109.5399  109.1281 calculate D2E/DX2 analyti!
 ! A19   A(14,5,15)       107.8383  107.8383  107.8893 calculate D2E/DX2 analyti!
 ! A20   A(5,6,7)         121.5109  121.7412  113.7997 calculate D2E/DX2 analyti!
 ! A21   A(5,6,8)         102.4733  115.1885  111.0357 calculate D2E/DX2 analyti!
 ! A22   A(5,6,16)        115.1125  115.1125  109.521  calculate D2E/DX2 analyti!
 ! A23   A(7,6,8)          86.6943   59.432   102.3855 calculate D2E/DX2 analyti!
 ! A24   A(7,6,16)        116.9385  118.3982  112.1629 calculate D2E/DX2 analyti!
 ! A25   A(8,6,16)        106.5824  114.4634  107.599  calculate D2E/DX2 analyti!
 ! A26   A(6,7,17)        121.1613  119.8248  113.4801 calculate D2E/DX2 analyti!
 ! A27   A(6,7,18)        119.5555  119.4255  112.4462 calculate D2E/DX2 analyti!
 ! A28   A(6,7,21)        116.9157   93.0772  103.5044 calculate D2E/DX2 analyti!
 ! A29   A(8,7,17)        119.935   114.8941  136.7016 calculate D2E/DX2 analyti!
 ! A30   A(8,7,18)        116.1683  114.8419  111.9855 calculate D2E/DX2 analyti!
 ! A31   A(17,7,18)       115.8264  115.8264  109.6035 calculate D2E/DX2 analyti!
 ! A32   A(17,7,21)        66.9721   84.3448  108.7641 calculate D2E/DX2 analyti!
 ! A33   A(18,7,21)       101.9645  114.6156  108.7383 calculate D2E/DX2 analyti!
 ! A34   A(6,8,19)        118.9609  138.4355  110.075  calculate D2E/DX2 analyti!
 ! A35   A(7,8,19)         73.2706  144.8426   71.3801 calculate D2E/DX2 analyti!
 ! A36   A(8,19,20)        93.0497   90.0152  125.1145 calculate D2E/DX2 analyti!
 ! A37   A(8,19,21)       137.7157   92.1033  110.2828 calculate D2E/DX2 analyti!
 ! A38   L(20,19,21,8,-1)  230.7655  182.1185  235.3973 calculate D2E/DX2 analyt!
 ! A39   L(20,19,21,8,-2)  185.9149  179.9645  180.0716 calculate D2E/DX2 analyt!
 ! A40   A(7,21,19)        72.4838   81.045   109.5816 calculate D2E/DX2 analyti!
 ! D1    D(9,1,2,3)      -177.9628 -177.9628 -178.0834 calculate D2E/DX2 analyti!
 ! D2    D(9,1,2,11)        0.907     0.907     0.8598 calculate D2E/DX2 analyti!
 ! D3    D(10,1,2,3)        1.8222    1.8222    1.8886 calculate D2E/DX2 analyti!
 ! D4    D(10,1,2,11)    -179.308  -179.308  -179.1682 calculate D2E/DX2 analyti!
 ! D5    D(1,2,3,4)      -127.8892 -127.8892 -126.9907 calculate D2E/DX2 analyti!
 ! D6    D(1,2,3,12)      112.5519  112.5519  113.551  calculate D2E/DX2 analyti!
 ! D7    D(1,2,3,13)       -6.3042   -6.3042   -5.6005 calculate D2E/DX2 analyti!
 ! D8    D(11,2,3,4)       53.1909   53.1909   54.0195 calculate D2E/DX2 analyti!
 ! D9    D(11,2,3,12)     -66.3679  -66.3679  -65.4388 calculate D2E/DX2 analyti!
 ! D10   D(11,2,3,13)     174.776   174.776   175.4097 calculate D2E/DX2 analyti!
 ! D11   D(2,3,4,5)      -176.7507 -176.7507 -175.2776 calculate D2E/DX2 analyti!
 ! D12   D(12,3,4,5)      -56.6508  -56.6508  -55.1631 calculate D2E/DX2 analyti!
 ! D13   D(13,3,4,5)       61.4786   61.4786   63.0252 calculate D2E/DX2 analyti!
 ! D14   D(3,4,5,6)      -176.2477 -176.2477 -176.5032 calculate D2E/DX2 analyti!
 ! D15   D(3,4,5,14)       63.2868   63.2868   64.027  calculate D2E/DX2 analyti!
 ! D16   D(3,4,5,15)      -56.4984  -56.4984  -55.9777 calculate D2E/DX2 analyti!
 ! D17   D(4,5,6,7)       -91.9111  -96.1304 -168.8458 calculate D2E/DX2 analyti!
 ! D18   D(4,5,6,8)       174.285  -164.4212   76.2704 calculate D2E/DX2 analyti!
 ! D19   D(4,5,6,16)       59.0403   59.0403  -42.4178 calculate D2E/DX2 analyti!
 ! D20   D(14,5,6,7)       29.4746   25.2554  -48.1982 calculate D2E/DX2 analyti!
 ! D21   D(14,5,6,8)      -64.3292  -43.0354 -163.0819 calculate D2E/DX2 analyti!
 ! D22   D(14,5,6,16)    -179.5739 -179.5739   78.2298 calculate D2E/DX2 analyti!
 ! D23   D(15,5,6,7)      147.708   143.4887   69.2256 calculate D2E/DX2 analyti!
 ! D24   D(15,5,6,8)       53.9041   75.198   -45.6581 calculate D2E/DX2 analyti!
 ! D25   D(15,5,6,16)     -61.3406  -61.3406 -164.3464 calculate D2E/DX2 analyti!
 ! D26   D(5,6,7,17)      154.4268  154.6708  102.473  calculate D2E/DX2 analyti!
 ! D27   D(5,6,7,18)       -3.722     0.5266  -22.6434 calculate D2E/DX2 analyti!
 ! D28   D(5,6,7,21)     -127.4427 -120.0863 -139.8162 calculate D2E/DX2 analyti!
 ! D29   D(8,6,7,17)     -102.9608 -102.8641 -137.6254 calculate D2E/DX2 analyti!
 ! D30   D(8,6,7,18)       98.8904  102.9917   97.2582 calculate D2E/DX2 analyti!
 ! D31   D(8,6,7,21)      -24.8303  -17.6212  -19.9145 calculate D2E/DX2 analyti!
 ! D32   D(16,6,7,17)       3.9757    0.2805  -22.5566 calculate D2E/DX2 analyti!
 ! D33   D(16,6,7,18)    -154.173  -153.8637 -147.673  calculate D2E/DX2 analyti!
 ! D34   D(16,6,7,21)      82.1062   85.5234   95.1542 calculate D2E/DX2 analyti!
 ! D35   D(5,6,8,19)      139.9164 -104.4848  138.6029 calculate D2E/DX2 analyti!
 ! D36   D(7,6,8,19)       18.3551  142.0989   16.7925 calculate D2E/DX2 analyti!
 ! D37   D(16,6,8,19)     -98.7924   32.3363 -101.5572 calculate D2E/DX2 analyti!
 ! D38   D(17,7,8,19)     -57.4947  -23.7576  -99.0199 calculate D2E/DX2 analyti!
 ! D39   D(18,7,8,19)      89.9715  114.3222   98.0307 calculate D2E/DX2 analyti!
 ! D40   D(6,7,21,19)      25.5995    2.5549   17.0908 calculate D2E/DX2 analyti!
 ! D41   D(17,7,21,19)    140.1046  122.2366  138.0448 calculate D2E/DX2 analyti!
 ! D42   D(18,7,21,19)   -106.7039 -121.9038 -102.6528 calculate D2E/DX2 analyti!
 ! D43   D(6,8,19,20)    -172.5801   33.8305  173.1189 calculate D2E/DX2 analyti!
 ! D44   D(6,8,19,21)       1.505  -146.134    -6.9527 calculate D2E/DX2 analyti!
 ! D45   D(7,8,19,20)    -158.5111  144.2871 -175.5165 calculate D2E/DX2 analyti!
 ! D46   D(7,8,19,21)      15.574   -35.6774    4.4119 calculate D2E/DX2 analyti!
 ! D47   D(8,19,21,7)     -14.6054    6.7933   -7.2023 calculate D2E/DX2 analyti!
 --------------------------------------------------------------------------------
 Trust Radius=3.00D-01 FncErr=1.00D-07 GrdErr=1.00D-06 EigMax=2.50D+02 EigMin=1.00D-04
 Number of steps in this run=    119 maximum allowed number of steps=    126.
 Search for a saddle point of order  1.
 GradGradGradGradGradGradGradGradGradGradGradGradGradGradGradGradGradGrad

                          Input orientation:                          
 ---------------------------------------------------------------------
 Center     Atomic      Atomic             Coordinates (Angstroms)
 Number     Number       Type             X           Y           Z
 ---------------------------------------------------------------------
      1          6           0      -10.750863   -2.955810   -1.212149
      2          6           0       -9.482505   -2.641447   -1.486675
      3          6           0       -8.385275   -2.597834   -0.465620
      4          8           0       -7.721515   -1.338619   -0.553952
      5          6           0       -6.615541   -1.228555    0.326842
      6          6           0       -6.062835    0.170981    0.204311
      7          6           0       -4.876669    0.524167   -0.840219
      8          8           0       -4.964989    0.200056    1.320835
      9          1           0      -11.505669   -3.005993   -1.991421
     10          1           0      -11.077981   -3.177404   -0.198484
     11          1           0       -9.180940   -2.412484   -2.508000
     12          1           0       -7.656938   -3.405233   -0.659034
     13          1           0       -8.789770   -2.748691    0.547804
     14          1           0       -5.831986   -1.962027    0.077675
     15          1           0       -6.930225   -1.410941    1.367660
     16          1           0       -6.767490    0.969084    0.439885
     17          1           0       -4.754217    1.531737   -1.233881
     18          1           0       -4.422761   -0.273101   -1.427369
     19          6           0       -3.558828    0.941936    1.018105
     20          8           0       -2.997664    0.511079    2.181516
     21          8           0       -2.999516    1.620896    0.021052
 ---------------------------------------------------------------------
                    Distance matrix (angstroms):
                    1          2          3          4          5
     1  C    0.000000
     2  C    1.335261   0.000000
     3  C    2.506284   1.499456   0.000000
     4  O    3.496495   2.380844   1.426185   0.000000
     5  C    4.738438   3.674859   2.373790   1.418129   0.000000
     6  C    5.810403   4.739549   3.675442   2.367504   1.509702
     7  C    6.837742   5.626077   4.711425   3.412487   2.730886
     8  O    7.060583   6.030274   4.766337   3.671619   2.398598
     9  H    1.086055   2.116803   3.497359   4.377930   5.696225
    10  H    1.087946   2.119488   2.767296   3.843612   4.897688
    11  H    2.106915   1.089252   2.199717   2.664847   4.002410
    12  H    3.174947   2.145007   1.104435   2.070291   2.606604
    13  H    2.643146   2.151857   1.101545   2.084068   2.662125
    14  H    5.181371   4.029279   2.686765   2.087561   1.101827
    15  H    4.862027   4.021878   2.624272   2.079414   1.102539
    16  H    5.831061   4.911097   4.019959   2.687633   2.205784
    17  H    7.489880   6.311582   5.552311   4.184029   3.676900
    18  H    6.876636   5.586912   4.693704   3.574907   2.966215
    19  C    8.478904   7.362371   6.166522   5.000025   3.812134
    20  O    9.145948   8.089945   6.760105   5.763587   4.422123
    21  O    9.085725   7.903794   6.858639   5.602378   4.613948
                    6          7          8          9         10
     6  C    0.000000
     7  C    1.619498   0.000000
     8  O    1.566122   2.187008   0.000000
     9  H    6.673743   7.598087   8.001893   0.000000
    10  H    6.043643   7.250498   7.147324   1.851195   0.000000
    11  H    4.873756   5.471029   6.265747   2.454276   3.085082
    12  H    4.009468   4.816939   4.915748   4.092356   3.459414
    13  H    4.009819   5.286829   4.890975   3.726926   2.444719
    14  H    2.149198   2.817147   2.640404   6.128760   5.392019
    15  H    2.146677   3.582801   2.541585   5.895957   4.772534
    16  H    1.090414   2.326332   2.148601   6.645512   6.015082
    17  H    2.373296   1.088651   2.888663   8.169881   7.952235
    18  H    2.355723   1.089226   2.840865   7.612781   7.364583
    19  C    2.743480   2.316162   1.618431   9.369934   8.659487
    20  O    3.663369   3.558330   2.169763  10.107885   9.195696
    21  O    3.394077   2.338441   2.751601   9.890035   9.398589
                   11         12         13         14         15
    11  H    0.000000
    12  H    2.593609   0.000000
    13  H    3.099030   1.780678   0.000000
    14  H    4.254894   2.440499   3.096506   0.000000
    15  H    4.592336   2.934757   2.433032   1.781540   0.000000
    16  H    5.094092   4.597107   4.233570   3.098028   2.559642
    17  H    6.064333   5.755858   6.146718   3.884347   4.490254
    18  H    5.327756   4.567328   5.394499   2.665247   3.923549
    19  C    7.435973   6.205254   6.419086   3.805871   4.126080
    20  O    8.292869   6.716774   6.844239   4.309963   4.452141
    21  O    7.802196   6.885933   7.273087   4.567650   5.143526
                   16         17         18         19         20
    16  H    0.000000
    17  H    2.677935   0.000000
    18  H    3.244598   1.845194   0.000000
    19  C    3.260458   2.616918   2.864095   0.000000
    20  O    4.177874   3.973934   3.958521   1.361641   0.000000
    21  O    3.846805   2.159116   2.776829   1.329636   2.428847
                   21
    21  O    0.000000
 Symmetry turned off by external request.
 Stoichiometry    C7H10O4
 Framework group  C1[X(C7H10O4)]
 Deg. of freedom    57
 Full point group                 C1      NOp   1
 Rotational constants (GHZ):           4.0605442           0.3427091           0.3247617
 General basis read from cards:  (5D, 7F)
 ======================================================================================================
                                       Pseudopotential Parameters
 ======================================================================================================
  Center     Atomic      Valence      Angular      Power
  Number     Number     Electrons     Momentum     of R      Exponent        Coefficient   SO-Coeffient
 ======================================================================================================
    1          6
                                   No pseudopotential on this center.
    2          6
                                   No pseudopotential on this center.
    3          6
                                   No pseudopotential on this center.
    4          8
                                   No pseudopotential on this center.
    5          6
                                   No pseudopotential on this center.
    6          6
                                   No pseudopotential on this center.
    7          6
                                   No pseudopotential on this center.
    8          8
                                   No pseudopotential on this center.
    9          1
                                   No pseudopotential on this center.
   10          1
                                   No pseudopotential on this center.
   11          1
                                   No pseudopotential on this center.
   12          1
                                   No pseudopotential on this center.
   13          1
                                   No pseudopotential on this center.
   14          1
                                   No pseudopotential on this center.
   15          1
                                   No pseudopotential on this center.
   16          1
                                   No pseudopotential on this center.
   17          1
                                   No pseudopotential on this center.
   18          1
                                   No pseudopotential on this center.
   19          6
                                   No pseudopotential on this center.
   20          8
                                   No pseudopotential on this center.
   21          8
                                   No pseudopotential on this center.
 ======================================================================================================
   248 basis functions,   422 primitive gaussians,   259 cartesian basis functions
    42 alpha electrons       42 beta electrons
       nuclear repulsion energy       574.9304031035 Hartrees.
 NAtoms=   21 NActive=   21 NUniq=   21 SFac= 1.00D+00 NAtFMM=   60 NAOKFM=F Big=F
 Integral buffers will be    131072 words long.
 Raffenetti 2 integral format.
 Two-electron integral symmetry is turned off.
 One-electron integrals computed using PRISM.
   1 Symmetry operations used in ECPInt.
 ECPInt:  NShTT=    3655 NPrTT=   16881 LenC2=    3318 LenP2D=   10486.
 LDataN:  DoStor=T MaxTD1= 4 Len=   56
 NBasis=   248 RedAO= T EigKep=  3.04D-05  NBF=   248
 NBsUse=   248 1.00D-06 EigRej= -1.00D+00 NBFU=   248
 ExpMin= 4.38D-02 ExpMax= 5.48D+03 ExpMxC= 8.25D+02 IAcc=3 IRadAn=         5 AccDes= 0.00D+00
 Harris functional with IExCor=  402 and IRadAn=       5 diagonalized for initial guess.
 HarFok:  IExCor=  402 AccDes= 0.00D+00 IRadAn=         5 IDoV= 1 UseB2=F ITyADJ=14
 ICtDFT=  3500011 ScaDFX=  1.000000  1.000000  1.000000  1.000000
 FoFCou: FMM=F IPFlag=           0 FMFlag=      100000 FMFlg1=           0
         NFxFlg=           0 DoJE=T BraDBF=F KetDBF=T FulRan=T
         wScrn=  0.000000 ICntrl=       500 IOpCl=  0 I1Cent=   200000004 NGrid=           0
         NMat0=    1 NMatS0=      1 NMatT0=    0 NMatD0=    1 NMtDS0=    0 NMtDT0=    0
 Symmetry not used in FoFCou.
 Gradient too large for Newton-Raphson -- use scaled steepest descent instead.
     Minimum is close to point  2 DX= -1.81D-02 DF= -1.20D-03 DXR=  6.42D-02 DFR=  4.14D-03 which will be used.
 Gradient too large for Newton-Raphson -- use scaled steepest descent instead.
 Gradient too large for Newton-Raphson -- use scaled steepest descent instead.
     Minimum is close to point  2 DX=  2.87D-02 DF= -3.79D-05 DXR=  8.74D-02 DFR=  7.69D-03 which will be used.
 Gradient too large for Newton-Raphson -- use scaled steepest descent instead.
     Accept linear search using points  1 and  2.
 Gradient too large for Newton-Raphson -- use scaled steepest descent instead.
 Gradient too large for Newton-Raphson -- use scaled steepest descent instead.
     Accept linear search using points  1 and  2.
 Gradient too large for Newton-Raphson -- use scaled steepest descent instead.
     Minimum is close to point  2 DX=  2.76D-02 DF= -1.45D-07 DXR=  3.33D-02 DFR=  1.11D-03 which will be used.
 LinEq1:  Iter=  0 NonCon=     1 RMS=2.94D-04 Max=1.73D-02 NDo=     1
 AX will form     1 AO Fock derivatives at one time.
 LinEq1:  Iter=  1 NonCon=     1 RMS=5.33D-04 Max=3.74D-02 NDo=     1
 LinEq1:  Iter=  2 NonCon=     1 RMS=8.54D-05 Max=2.71D-03 NDo=     1
 LinEq1:  Iter=  3 NonCon=     1 RMS=8.52D-05 Max=2.60D-03 NDo=     1
 LinEq1:  Iter=  4 NonCon=     1 RMS=9.17D-05 Max=2.67D-03 NDo=     1
 LinEq1:  Iter=  5 NonCon=     1 RMS=5.03D-05 Max=2.17D-03 NDo=     1
 LinEq1:  Iter=  6 NonCon=     1 RMS=5.49D-05 Max=2.17D-03 NDo=     1
 LinEq1:  Iter=  7 NonCon=     1 RMS=5.17D-05 Max=1.61D-03 NDo=     1
 LinEq1:  Iter=  8 NonCon=     1 RMS=3.35D-05 Max=1.02D-03 NDo=     1
 LinEq1:  Iter=  9 NonCon=     1 RMS=1.40D-05 Max=2.93D-04 NDo=     1
 LinEq1:  Iter= 10 NonCon=     1 RMS=8.94D-06 Max=2.87D-04 NDo=     1
 LinEq1:  Iter= 11 NonCon=     1 RMS=5.43D-06 Max=1.28D-04 NDo=     1
 LinEq1:  Iter= 12 NonCon=     1 RMS=3.24D-06 Max=7.35D-05 NDo=     1
 LinEq1:  Iter= 13 NonCon=     1 RMS=1.71D-06 Max=3.51D-05 NDo=     1
 LinEq1:  Iter= 14 NonCon=     1 RMS=9.80D-07 Max=1.99D-05 NDo=     1
 LinEq1:  Iter= 15 NonCon=     1 RMS=3.59D-07 Max=8.53D-06 NDo=     1
 LinEq1:  Iter= 16 NonCon=     1 RMS=2.42D-07 Max=7.07D-06 NDo=     1
 LinEq1:  Iter= 17 NonCon=     1 RMS=1.18D-07 Max=3.30D-06 NDo=     1
 LinEq1:  Iter= 18 NonCon=     1 RMS=6.13D-08 Max=1.87D-06 NDo=     1
 LinEq1:  Iter= 19 NonCon=     1 RMS=2.66D-08 Max=9.41D-07 NDo=     1
 LinEq1:  Iter= 20 NonCon=     1 RMS=6.83D-09 Max=1.93D-07 NDo=     1
 LinEq1:  Iter= 21 NonCon=     0 RMS=1.67D-09 Max=3.68D-08 NDo=     1
 Linear equations converged to 1.315D-08 1.315D-07 after    21 iterations.
     Accept linear search using points  1 and  2.
     Minimum is close to point  2 DX= -1.35D-02 DF= -2.32D-08 DXR=  1.36D-02 DFR=  1.88D-04 which will be used.
 LinEq1:  Iter=  0 NonCon=     1 RMS=1.54D-05 Max=8.97D-04 NDo=     1
 LinEq1:  Iter=  1 NonCon=     1 RMS=1.06D-05 Max=5.37D-04 NDo=     1
 LinEq1:  Iter=  2 NonCon=     1 RMS=1.03D-05 Max=4.53D-04 NDo=     1
 LinEq1:  Iter=  3 NonCon=     1 RMS=6.10D-06 Max=1.60D-04 NDo=     1
 LinEq1:  Iter=  4 NonCon=     1 RMS=9.24D-06 Max=4.77D-04 NDo=     1
 LinEq1:  Iter=  5 NonCon=     1 RMS=1.03D-05 Max=4.10D-04 NDo=     1
 LinEq1:  Iter=  6 NonCon=     1 RMS=7.25D-06 Max=2.49D-04 NDo=     1
 LinEq1:  Iter=  7 NonCon=     1 RMS=3.23D-06 Max=7.62D-05 NDo=     1
 LinEq1:  Iter=  8 NonCon=     1 RMS=2.30D-06 Max=9.11D-05 NDo=     1
 LinEq1:  Iter=  9 NonCon=     1 RMS=1.15D-06 Max=5.55D-05 NDo=     1
 LinEq1:  Iter= 10 NonCon=     1 RMS=6.58D-07 Max=2.36D-05 NDo=     1
 LinEq1:  Iter= 11 NonCon=     1 RMS=4.29D-07 Max=1.26D-05 NDo=     1
 LinEq1:  Iter= 12 NonCon=     1 RMS=3.02D-07 Max=8.51D-06 NDo=     1
 LinEq1:  Iter= 13 NonCon=     1 RMS=1.52D-07 Max=2.53D-06 NDo=     1
 LinEq1:  Iter= 14 NonCon=     1 RMS=8.44D-08 Max=2.42D-06 NDo=     1
 LinEq1:  Iter= 15 NonCon=     1 RMS=5.99D-08 Max=1.41D-06 NDo=     1
 LinEq1:  Iter= 16 NonCon=     1 RMS=2.15D-08 Max=3.52D-07 NDo=     1
 LinEq1:  Iter= 17 NonCon=     1 RMS=1.03D-08 Max=1.94D-07 NDo=     1
 LinEq1:  Iter= 18 NonCon=     1 RMS=3.95D-09 Max=7.33D-08 NDo=     1
 LinEq1:  Iter= 19 NonCon=     0 RMS=1.10D-09 Max=2.16D-08 NDo=     1
 Linear equations converged to 6.780D-09 6.780D-08 after    19 iterations.
 Restarting incremental Fock formation.
     Minimum is close to point  2 DX=  1.90D-03 DF= -1.14D-12 DXR=  1.90D-03 DFR=  3.42D-06 which will be used.
 SCF Done:  E(RB3LYP) =  -573.428216894     a.u. after   10 cycles
            Convg  =    0.6059D-06                    61 Fock formations.
              S**2 =  0.0000                  -V/T =  2.0086
 DoSCS=F DFT=T ScalE2(SS,OS)=  1.000000  1.000000
 Range of M.O.s used for correlation:     1   248
 NBasis=   248 NAE=    42 NBE=    42 NFC=     0 NFV=     0
 NROrb=    248 NOA=    42 NOB=    42 NVA=   206 NVB=   206

 **** Warning!!: The largest alpha MO coefficient is  0.38359968D+02


 **** Warning!!: The smallest alpha delta epsilon is  0.63198713D-01

   1 Symmetry operations used in ECPInt.
 ECPInt:  NShTT=    3655 NPrTT=   16881 LenC2=    3318 LenP2D=   10486.
 LDataN:  DoStor=T MaxTD1= 5 Len=  102
 Number of processors reduced to  60 by ecpmxn.
 Symmetrizing basis deriv contribution to polar:
 IMax=3 JMax=2 DiffMx= 0.00D+00
 G2DrvN: will do    22 centers at a time, making    1 passes.
 Calling FoFCou, ICntrl=  3107 FMM=F I1Cent=   0 AccDes= 0.00D+00.
 End of G2Drv F.D. properties file   721 does not exist.
 End of G2Drv F.D. properties file   722 does not exist.
 End of G2Drv F.D. properties file   788 does not exist.
          IDoAtm=111111111111111111111
          Differentiating once with respect to electric field.
                with respect to dipole field.
          Differentiating once with respect to nuclear coordinates.
 Keep R1 ints in memory in canonical form, NReq=546145054.
          There are    66 degrees of freedom in the 1st order CPHF.  IDoFFX=6 NUNeed=     3.
     63 vectors produced by pass  0 Test12= 1.31D-14 1.52D-09 XBig12= 1.88D+02 6.83D+00.
 AX will form    63 AO Fock derivatives at one time.
     63 vectors produced by pass  1 Test12= 1.31D-14 1.52D-09 XBig12= 1.10D+02 1.66D+00.
     63 vectors produced by pass  2 Test12= 1.31D-14 1.52D-09 XBig12= 1.01D+00 1.54D-01.
     63 vectors produced by pass  3 Test12= 1.31D-14 1.52D-09 XBig12= 7.97D-03 1.49D-02.
     63 vectors produced by pass  4 Test12= 1.31D-14 1.52D-09 XBig12= 2.11D-05 6.36D-04.
     55 vectors produced by pass  5 Test12= 1.31D-14 1.52D-09 XBig12= 3.06D-08 1.70D-05.
     12 vectors produced by pass  6 Test12= 1.31D-14 1.52D-09 XBig12= 3.37D-11 5.33D-07.
      3 vectors produced by pass  7 Test12= 1.31D-14 1.52D-09 XBig12= 3.17D-14 1.77D-08.
 InvSVY:  IOpt=1 It=  1 EMax= 4.59D-15
 Solved reduced A of dimension   385 with    66 vectors.
 Isotropic polarizability for W=    0.000000      114.90 Bohr**3.
 End of Minotr F.D. properties file   721 does not exist.
 End of Minotr F.D. properties file   722 does not exist.
 End of Minotr F.D. properties file   788 does not exist.

 **********************************************************************

            Population analysis using the SCF Density.

 **********************************************************************

 Alpha  occ. eigenvalues --  -19.22216 -19.20289 -19.19011 -19.11972 -10.37344
 Alpha  occ. eigenvalues --  -10.35567 -10.31236 -10.28024 -10.26463 -10.21570
 Alpha  occ. eigenvalues --  -10.20754  -1.07709  -1.06433  -1.01632  -0.93657
 Alpha  occ. eigenvalues --   -0.82669  -0.79780  -0.75699  -0.69518  -0.64562
 Alpha  occ. eigenvalues --   -0.58959  -0.56761  -0.55173  -0.52913  -0.52259
 Alpha  occ. eigenvalues --   -0.49807  -0.49302  -0.47774  -0.45955  -0.44471
 Alpha  occ. eigenvalues --   -0.43081  -0.42091  -0.41160  -0.38942  -0.38555
 Alpha  occ. eigenvalues --   -0.36022  -0.33065  -0.31338  -0.30387  -0.28847
 Alpha  occ. eigenvalues --   -0.27083  -0.24429
 Alpha virt. eigenvalues --   -0.18109  -0.03163  -0.02101  -0.01138  -0.00442
 Alpha virt. eigenvalues --    0.00195   0.00483   0.00946   0.01760   0.02993
 Alpha virt. eigenvalues --    0.03274   0.04041   0.04542   0.05682   0.05774
 Alpha virt. eigenvalues --    0.06539   0.07045   0.07776   0.08055   0.09111
 Alpha virt. eigenvalues --    0.09554   0.09728   0.10316   0.11526   0.11768
 Alpha virt. eigenvalues --    0.12767   0.13287   0.14213   0.14787   0.15161
 Alpha virt. eigenvalues --    0.15859   0.17597   0.17942   0.18503   0.19333
 Alpha virt. eigenvalues --    0.20507   0.20891   0.21686   0.21923   0.22518
 Alpha virt. eigenvalues --    0.23296   0.23987   0.24357   0.24727   0.25219
 Alpha virt. eigenvalues --    0.26106   0.26983   0.27143   0.28110   0.28699
 Alpha virt. eigenvalues --    0.29947   0.30407   0.31722   0.32324   0.33271
 Alpha virt. eigenvalues --    0.33610   0.34597   0.35226   0.35671   0.36376
 Alpha virt. eigenvalues --    0.36919   0.38462   0.40051   0.40370   0.42972
 Alpha virt. eigenvalues --    0.43635   0.44797   0.55827   0.59078   0.59913
 Alpha virt. eigenvalues --    0.62258   0.63784   0.64912   0.65449   0.67996
 Alpha virt. eigenvalues --    0.68649   0.71902   0.74267   0.75270   0.78375
 Alpha virt. eigenvalues --    0.79326   0.82051   0.84494   0.85280   0.86661
 Alpha virt. eigenvalues --    0.87143   0.88163   0.90291   0.91468   0.94710
 Alpha virt. eigenvalues --    0.96379   0.96696   0.98921   1.00602   1.01956
 Alpha virt. eigenvalues --    1.03159   1.03995   1.05304   1.07677   1.09574
 Alpha virt. eigenvalues --    1.11501   1.15438   1.16525   1.19231   1.20088
 Alpha virt. eigenvalues --    1.23355   1.24075   1.26580   1.27527   1.29860
 Alpha virt. eigenvalues --    1.30342   1.32211   1.35271   1.35953   1.37014
 Alpha virt. eigenvalues --    1.38273   1.40383   1.43271   1.45393   1.46256
 Alpha virt. eigenvalues --    1.47324   1.48987   1.52109   1.53085   1.54341
 Alpha virt. eigenvalues --    1.56577   1.58983   1.62813   1.70846   1.72300
 Alpha virt. eigenvalues --    1.74361   1.74651   1.78834   1.80052   1.81000
 Alpha virt. eigenvalues --    1.83303   1.83999   1.85904   1.86881   1.88517
 Alpha virt. eigenvalues --    1.89059   1.89273   1.90957   1.91854   1.94439
 Alpha virt. eigenvalues --    1.94674   1.96757   1.97246   1.97951   2.01354
 Alpha virt. eigenvalues --    2.01619   2.03871   2.04905   2.06938   2.08082
 Alpha virt. eigenvalues --    2.10065   2.11665   2.14632   2.15550   2.17434
 Alpha virt. eigenvalues --    2.20514   2.22435   2.30163   2.31578   2.33126
 Alpha virt. eigenvalues --    2.33980   2.37271   2.38787   2.41490   2.47638
 Alpha virt. eigenvalues --    2.48137   2.49487   2.50672   2.52757   2.54799
 Alpha virt. eigenvalues --    2.58482   2.61045   2.63083   2.63944   2.64763
 Alpha virt. eigenvalues --    2.67125   2.67740   2.69954   2.73252   2.75610
 Alpha virt. eigenvalues --    2.77678   2.79595   2.81897   2.82787   2.87091
 Alpha virt. eigenvalues --    2.91948   2.98021   2.99721   3.02972   3.09789
 Alpha virt. eigenvalues --    3.11246   3.25136   3.25913   3.28911   3.31940
 Alpha virt. eigenvalues --    3.35197   3.39352   3.43600   3.44325   3.48481
 Alpha virt. eigenvalues --    3.66888
          Condensed to atoms (all electrons):
               1          2          3          4          5          6
     1  C    5.016394   0.396867   0.056643   0.000824  -0.017287   0.018735
     2  C    0.396867   5.346189   0.179586  -0.019201   0.026044  -0.085099
     3  C    0.056643   0.179586   5.273117   0.026997  -0.039434  -0.042062
     4  O    0.000824  -0.019201   0.026997   8.482093   0.068271  -0.036529
     5  C   -0.017287   0.026044  -0.039434   0.068271   5.995615  -0.326344
     6  C    0.018735  -0.085099  -0.042062  -0.036529  -0.326344   6.734285
     7  C    0.003300  -0.025967  -0.023560   0.016679  -0.312179  -0.309643
     8  O    0.000076  -0.001058   0.004160   0.001533  -0.051573  -0.079984
     9  H    0.382699  -0.032871   0.014214   0.000114   0.000296  -0.000038
    10  H    0.434996  -0.103954   0.013325   0.000788   0.001597   0.000386
    11  H    0.002843   0.350986  -0.040847  -0.000091   0.000879  -0.003002
    12  H   -0.020120   0.025718   0.382877  -0.061535  -0.017386  -0.007464
    13  H    0.019704  -0.067353   0.414600  -0.053399   0.003507  -0.011210
    14  H   -0.001131  -0.001799   0.001161  -0.056458   0.403370  -0.073064
    15  H    0.001345  -0.006068  -0.027531  -0.047932   0.353283   0.059856
    16  H    0.000703  -0.004663  -0.002271   0.001664  -0.077568   0.352969
    17  H    0.000004  -0.000200   0.000888   0.000363   0.008492  -0.084660
    18  H   -0.000086   0.000685   0.002256   0.000722   0.058636  -0.096861
    19  C   -0.000259  -0.000625  -0.002630   0.002926  -0.041551  -0.082404
    20  O   -0.000016   0.000075   0.000369   0.000103   0.006611   0.035213
    21  O   -0.000010   0.000309   0.000703  -0.000402   0.009678   0.157046
               7          8          9         10         11         12
     1  C    0.003300   0.000076   0.382699   0.434996   0.002843  -0.020120
     2  C   -0.025967  -0.001058  -0.032871  -0.103954   0.350986   0.025718
     3  C   -0.023560   0.004160   0.014214   0.013325  -0.040847   0.382877
     4  O    0.016679   0.001533   0.000114   0.000788  -0.000091  -0.061535
     5  C   -0.312179  -0.051573   0.000296   0.001597   0.000879  -0.017386
     6  C   -0.309643  -0.079984  -0.000038   0.000386  -0.003002  -0.007464
     7  C    5.959190   0.061188  -0.000010   0.000002  -0.000333   0.000745
     8  O    0.061188   8.504517  -0.000000   0.000000  -0.000001  -0.000055
     9  H   -0.000010  -0.000000   0.534458  -0.035103  -0.007104  -0.000212
    10  H    0.000002   0.000000  -0.035103   0.543142   0.004467   0.000220
    11  H   -0.000333  -0.000001  -0.007104   0.004467   0.551106  -0.003138
    12  H    0.000745  -0.000055  -0.000212   0.000220  -0.003138   0.611291
    13  H   -0.000400   0.000092   0.000166   0.003676   0.004055  -0.049698
    14  H    0.012348   0.006320  -0.000000   0.000000  -0.000013   0.008240
    15  H   -0.004598  -0.002614   0.000000  -0.000002  -0.000002  -0.002479
    16  H    0.036887  -0.031765   0.000000  -0.000000   0.000002  -0.000003
    17  H    0.412234   0.011145  -0.000000   0.000000   0.000000   0.000000
    18  H    0.342231   0.005520  -0.000000   0.000000   0.000000   0.000004
    19  C    0.039322   0.085607  -0.000000  -0.000000   0.000005   0.000052
    20  O   -0.041105  -0.135793   0.000000  -0.000000  -0.000000  -0.000001
    21  O   -0.104222  -0.116629   0.000000  -0.000000  -0.000000  -0.000000
              13         14         15         16         17         18
     1  C    0.019704  -0.001131   0.001345   0.000703   0.000004  -0.000086
     2  C   -0.067353  -0.001799  -0.006068  -0.004663  -0.000200   0.000685
     3  C    0.414600   0.001161  -0.027531  -0.002271   0.000888   0.002256
     4  O   -0.053399  -0.056458  -0.047932   0.001664   0.000363   0.000722
     5  C    0.003507   0.403370   0.353283  -0.077568   0.008492   0.058636
     6  C   -0.011210  -0.073064   0.059856   0.352969  -0.084660  -0.096861
     7  C   -0.000400   0.012348  -0.004598   0.036887   0.412234   0.342231
     8  O    0.000092   0.006320  -0.002614  -0.031765   0.011145   0.005520
     9  H    0.000166  -0.000000   0.000000   0.000000  -0.000000  -0.000000
    10  H    0.003676   0.000000  -0.000002  -0.000000   0.000000   0.000000
    11  H    0.004055  -0.000013  -0.000002   0.000002   0.000000   0.000000
    12  H   -0.049698   0.008240  -0.002479  -0.000003   0.000000   0.000004
    13  H    0.604345  -0.002130   0.007803  -0.000015  -0.000000   0.000000
    14  H   -0.002130   0.599301  -0.046750   0.004441   0.000186   0.002094
    15  H    0.007803  -0.046750   0.561797  -0.005298  -0.000075  -0.000024
    16  H   -0.000015   0.004441  -0.005298   0.535082  -0.000667   0.001620
    17  H   -0.000000   0.000186  -0.000075  -0.000667   0.449308  -0.020965
    18  H    0.000000   0.002094  -0.000024   0.001620  -0.020965   0.478528
    19  C    0.000010   0.003587  -0.002301   0.008351   0.011442   0.011875
    20  O    0.000001  -0.000699   0.000141  -0.001623  -0.000574   0.000745
    21  O    0.000000  -0.000672   0.000110  -0.002253  -0.038823  -0.007128
              19         20         21
     1  C   -0.000259  -0.000016  -0.000010
     2  C   -0.000625   0.000075   0.000309
     3  C   -0.002630   0.000369   0.000703
     4  O    0.002926   0.000103  -0.000402
     5  C   -0.041551   0.006611   0.009678
     6  C   -0.082404   0.035213   0.157046
     7  C    0.039322  -0.041105  -0.104222
     8  O    0.085607  -0.135793  -0.116629
     9  H   -0.000000   0.000000   0.000000
    10  H   -0.000000  -0.000000  -0.000000
    11  H    0.000005  -0.000000  -0.000000
    12  H    0.000052  -0.000001  -0.000000
    13  H    0.000010   0.000001   0.000000
    14  H    0.003587  -0.000699  -0.000672
    15  H   -0.002301   0.000141   0.000110
    16  H    0.008351  -0.001623  -0.002253
    17  H    0.011442  -0.000574  -0.038823
    18  H    0.011875   0.000745  -0.007128
    19  C    4.833016   0.442134   0.175892
    20  O    0.442134   8.261242  -0.080582
    21  O    0.175892  -0.080582   8.385185
 Mulliken charges:
               1
     1  C   -0.296225
     2  C    0.022399
     3  C   -0.192558
     4  O   -0.327529
     5  C   -0.052956
     6  C   -0.120127
     7  C   -0.062110
     8  O   -0.260688
     9  H    0.143390
    10  H    0.136460
    11  H    0.140187
    12  H    0.132944
    13  H    0.126246
    14  H    0.141666
    15  H    0.161339
    16  H    0.184408
    17  H    0.251899
    18  H    0.220147
    19  C    0.515551
    20  O   -0.486243
    21  O   -0.378202
 Sum of Mulliken charges =  -0.00000
 Mulliken charges with hydrogens summed into heavy atoms:
               1
     1  C   -0.016374
     2  C    0.162587
     3  C    0.066632
     4  O   -0.327529
     5  C    0.250050
     6  C    0.064281
     7  C    0.409936
     8  O   -0.260688
    19  C    0.515551
    20  O   -0.486243
    21  O   -0.378202
 APT charges:
               1
     1  C   -0.095568
     2  C   -0.024324
     3  C    0.638730
     4  O   -0.878235
     5  C    0.597065
     6  C    0.260139
     7  C    0.465021
     8  O   -0.564180
     9  H    0.036549
    10  H    0.039624
    11  H    0.024600
    12  H   -0.086501
    13  H   -0.065177
    14  H   -0.057147
    15  H   -0.041261
    16  H    0.001728
    17  H    0.045097
    18  H    0.043862
    19  C    1.049912
    20  O   -0.731256
    21  O   -0.658679
 Sum of APT charges =  -0.00000
 APT charges with hydrogens summed into heavy atoms:
               1
     1  C   -0.019395
     2  C    0.000276
     3  C    0.487052
     4  O   -0.878235
     5  C    0.498657
     6  C    0.261867
     7  C    0.553981
     8  O   -0.564180
    19  C    1.049912
    20  O   -0.731256
    21  O   -0.658679
 Electronic spatial extent (au):  <R**2>=          14991.6711
 Charge=             -0.0000 electrons
 Dipole moment (field-independent basis, Debye):
    X=             -6.1361    Y=             -2.4711    Z=             -5.2379  Tot=              8.4376
 Quadrupole moment (field-independent basis, Debye-Ang):
   XX=            -10.0477   YY=            -61.9840   ZZ=            -72.7985
   XY=             13.1987   XZ=             15.6091   YZ=             -2.2453
 Traceless Quadrupole moment (field-independent basis, Debye-Ang):
   XX=             38.2291   YY=            -13.7073   ZZ=            -24.5218
   XY=             13.1987   XZ=             15.6091   YZ=             -2.2453
 Octapole moment (field-independent basis, Debye-Ang**2):
  XXX=            804.8083  YYY=            134.4460  ZZZ=            -35.6714  XYY=            375.8299
  XXY=            -67.1996  XXZ=            -42.1896  XZZ=            424.9923  YZZ=             40.2266
  YYZ=              0.7846  XYZ=              8.8004
 Hexadecapole moment (field-independent basis, Debye-Ang**3):
 XXXX=         -14626.7335 YYYY=          -1295.3750 ZZZZ=           -592.8390 XXXY=           -429.6900
 XXXZ=           -273.1531 YYYX=          -1624.6682 YYYZ=           -222.0256 ZZZX=           -242.8716
 ZZZY=           -203.2612 XXYY=          -2920.2315 XXZZ=          -3073.1388 YYZZ=           -296.1623
 XXYZ=            -88.7317 YYXZ=           -148.5520 ZZXY=           -500.1924
 N-N= 5.749304031035D+02 E-N=-2.489578411837D+03  KE= 5.685344078285D+02
  Exact polarizability: 147.600  31.889  91.539  18.895   0.418 105.553
 Approx polarizability: 212.792  41.948 132.832  15.365 -16.407 182.426
   1 Symmetry operations used in ECPInt.
 ECPInt:  NShTT=    3655 NPrTT=   16881 LenC2=    3318 LenP2D=   10486.
 LDataN:  DoStor=T MaxTD1= 6 Len=  172
 Calling FoFJK, ICntrl=    100127 FMM=F ISym2X=0 I1Cent= 0 IOpClX= 0 NMat=1 NMatS=1 NMatT=0.
 -------------------------------------------------------------------
 Center     Atomic                   Forces (Hartrees/Bohr)
 Number     Number              X              Y              Z
 -------------------------------------------------------------------
      1        6           0.000187526    0.000169788    0.000260258
      2        6          -0.000134783    0.000380563   -0.000112646
      3        6          -0.001566421   -0.003205894   -0.000081051
      4        8           0.001265976    0.001938354   -0.001006144
      5        6          -0.002518633   -0.003558131   -0.014197278
      6        6           0.083870378    0.020527190    0.001676260
      7        6          -0.067120859   -0.003630280    0.007058742
      8        8          -0.001138397    0.030910640   -0.062044137
      9        1           0.000155540   -0.000045281    0.000038234
     10        1          -0.000013131   -0.000038924   -0.000076237
     11        1          -0.000007658   -0.000195085   -0.000066237
     12        1          -0.000006814    0.000360532    0.000089329
     13        1           0.000243007    0.000360369   -0.000173877
     14        1          -0.000574683   -0.000104660    0.001074285
     15        1           0.002895628    0.004512437   -0.000069938
     16        1          -0.000032187    0.001067574   -0.010241828
     17        1          -0.005525762   -0.004981717    0.002569859
     18        1           0.006639053   -0.001699420    0.011065857
     19        6           0.096774706   -0.045035761    0.138736937
     20        8          -0.032675136    0.058346117   -0.119921610
     21        8          -0.080717352   -0.056078412    0.045421223
 -------------------------------------------------------------------
 Cartesian Forces:  Max     0.138736937 RMS     0.035334847
 FormGI is forming the generalized inverse of G from B-inverse, IUseBI=4.

 GradGradGradGradGradGradGradGradGradGradGradGradGradGradGradGradGradGrad
 Berny optimization.
 Internal  Forces:  Max     0.134391321 RMS     0.019714413
 Search for a saddle point.
 Step number   1 out of a maximum of  119
 All quantities printed in internal units (Hartrees-Bohrs-Radians)
 Second derivative matrix not updated -- analytic derivatives used.
 ITU=  0
 LST/QST climbing along tangent vector
     Eigenvalues ---   -0.07261  -0.02686  -0.02438  -0.00041   0.00118
     Eigenvalues ---    0.00212   0.00503   0.00511   0.00702   0.01546
     Eigenvalues ---    0.01812   0.03127   0.03295   0.03450   0.03956
     Eigenvalues ---    0.04084   0.04339   0.04634   0.05185   0.05684
     Eigenvalues ---    0.05916   0.06039   0.07215   0.07620   0.08798
     Eigenvalues ---    0.08936   0.10116   0.10336   0.10520   0.10694
     Eigenvalues ---    0.11085   0.12253   0.13308   0.13842   0.15055
     Eigenvalues ---    0.16582   0.16736   0.19911   0.21515   0.23163
     Eigenvalues ---    0.29875   0.30673   0.30994   0.31715   0.31765
     Eigenvalues ---    0.32394   0.32617   0.35094   0.35540   0.35845
     Eigenvalues ---    0.36194   0.36331   0.36381   0.36574   0.39258
     Eigenvalues ---    0.40131   0.631601000.000001000.000001000.00000
     Eigenvalues --- 1000.000001000.000001000.000001000.000001000.00000
     Eigenvalues --- 1000.000001000.000001000.000001000.000001000.00000
     Eigenvalues --- 1000.000001000.000001000.000001000.000001000.00000
     Eigenvalues --- 1000.000001000.000001000.000001000.000001000.00000
     Eigenvalues --- 1000.000001000.000001000.000001000.000001000.00000
     Eigenvalues --- 1000.000001000.000001000.000001000.000001000.00000
     Eigenvalues --- 1000.000001000.000001000.000001000.000001000.00000
     Eigenvalues --- 1000.000001000.000001000.000001000.000001000.00000
     Eigenvalues --- 1000.000001000.000001000.000001000.000001000.00000
     Eigenvalues --- 1000.000001000.000001000.000001000.00000
 Eigenvectors required to have negative eigenvalues:
                          R20       R16       A28       R19       D23
   1                    0.62792  -0.35351   0.22538   0.19882  -0.17778
                          D20       D17       D25       D22       D19
   1                   -0.17622  -0.17587  -0.15408  -0.15252  -0.15216
 QST in optimization variable space.
 Eigenvectors 1 and   3 swapped, overlap=  1.0000
                        Tangent   TS vect  // Eig F  Eigenval
   1         R1        -0.00007   0.00007  -0.01923  -0.02438
   2         R2        -0.00003   0.00003   0.01000  -0.02686
   3         R3        -0.00003   0.00003  -0.00922  -0.07261
   4         R4        -0.00009   0.00009  -0.00078  -0.00041
   5         R5        -0.00003   0.00003  -0.00312   0.00118
   6         R6         0.00056  -0.00056   0.00012   0.00212
   7         R7         0.00004  -0.00004   0.00030   0.00503
   8         R8        -0.00018   0.00018   0.00005   0.00511
   9         R9        -0.00206   0.00206  -0.00139   0.00702
  10         R10        0.00143  -0.00143  -0.00502   0.01546
  11         R11        0.00094  -0.00094   0.00002   0.01812
  12         R12       -0.00010   0.00010  -0.00003   0.03127
  13         R13        0.00123  -0.00123   0.00262   0.03295
  14         R14       -0.00418   0.00418  -0.00080   0.03450
  15         R15        0.00125  -0.00125   0.00588   0.03956
  16         R16        0.13613  -0.13613   0.00016   0.04084
  17         R17        0.00062  -0.00062  -0.01512   0.04339
  18         R18        0.00187  -0.00187   0.00097   0.04634
  19         R19       -0.50510   0.50510  -0.00188   0.05185
  20         R20       -0.23959   0.23959  -0.00457   0.05684
  21         R21       -0.01032   0.01032  -0.00107   0.05916
  22         R22        0.04901  -0.04901  -0.00056   0.06039
  23         A1        -0.00007   0.00007   0.00209   0.07215
  24         A2         0.00005  -0.00005  -0.01727   0.07620
  25         A3         0.00003  -0.00003  -0.00995   0.08798
  26         A4        -0.00031   0.00031   0.01832   0.08936
  27         A5         0.00013  -0.00013  -0.02185   0.10116
  28         A6         0.00018  -0.00018  -0.04274   0.10336
  29         A7        -0.00009   0.00009  -0.02225   0.10520
  30         A8         0.00018  -0.00018   0.00434   0.10694
  31         A9         0.00009  -0.00009  -0.00051   0.11085
  32         A10       -0.00023   0.00023  -0.00036   0.12253
  33         A11       -0.00035   0.00035   0.00639   0.13308
  34         A12        0.00039  -0.00039   0.00159   0.13842
  35         A13        0.00033  -0.00033  -0.02518   0.15055
  36         A14        0.00260  -0.00260   0.00003   0.16582
  37         A15       -0.00147   0.00147  -0.04346   0.16736
  38         A16        0.00199  -0.00199  -0.00326   0.19911
  39         A17       -0.00243   0.00243  -0.00174   0.21515
  40         A18       -0.00089   0.00089  -0.00028   0.23163
  41         A19        0.00013  -0.00013  -0.00739   0.29875
  42         A20       -0.03616   0.03616  -0.00324   0.30673
  43         A21        0.02350  -0.02350   0.00079   0.30994
  44         A22       -0.01087   0.01087  -0.00598   0.31715
  45         A23        0.06311  -0.06311   0.00182   0.31765
  46         A24        0.01719  -0.01719   0.02103   0.32394
  47         A25       -0.02827   0.02827  -0.04937   0.32617
  48         A26        0.00266  -0.00266   0.00084   0.35094
  49         A27       -0.02930   0.02930   0.00031   0.35540
  50         A28        0.00217  -0.00217  -0.00021   0.35845
  51         A29        0.05034  -0.05034  -0.00126   0.36194
  52         A30       -0.00092   0.00092   0.00060   0.36331
  53         A31        0.00328  -0.00328  -0.00301   0.36381
  54         A32        0.08589  -0.08589  -0.00291   0.36574
  55         A33       -0.00722   0.00722  -0.02247   0.39258
  56         A34       -0.09930   0.09930  -0.01826   0.40131
  57         A35       -0.09268   0.09268  -0.00017   0.63160
  58         A36        0.08068  -0.08068  -0.000001000.00000
  59         A37       -0.00617   0.00617   0.000001000.00000
  60         A38        0.07450  -0.07450  -0.000001000.00000
  61         A39       -0.00348   0.00348  -0.000001000.00000
  62         A40        0.06283  -0.06283  -0.000001000.00000
  63         D1        -0.00027   0.00027   0.000001000.00000
  64         D2        -0.00011   0.00011  -0.000001000.00000
  65         D3         0.00015  -0.00015  -0.000001000.00000
  66         D4         0.00031  -0.00031   0.000001000.00000
  67         D5         0.00200  -0.00200  -0.000001000.00000
  68         D6         0.00223  -0.00223   0.000001000.00000
  69         D7         0.00157  -0.00157  -0.000001000.00000
  70         D8         0.00185  -0.00185  -0.000001000.00000
  71         D9         0.00207  -0.00207   0.000001000.00000
  72         D10        0.00141  -0.00141  -0.000001000.00000
  73         D11        0.00329  -0.00329   0.000001000.00000
  74         D12        0.00332  -0.00332  -0.000001000.00000
  75         D13        0.00345  -0.00345   0.000001000.00000
  76         D14       -0.00055   0.00055   0.000001000.00000
  77         D15        0.00165  -0.00165  -0.000001000.00000
  78         D16        0.00114  -0.00114   0.000001000.00000
  79         D17       -0.16760   0.16760   0.000001000.00000
  80         D18       -0.24875   0.24875  -0.000001000.00000
  81         D19       -0.22444   0.22444   0.000001000.00000
  82         D20       -0.16923   0.16923  -0.000001000.00000
  83         D21       -0.25039   0.25039   0.000001000.00000
  84         D22       -0.22608   0.22608   0.000001000.00000
  85         D23       -0.17105   0.17105   0.000001000.00000
  86         D24       -0.25221   0.25221  -0.000001000.00000
  87         D25       -0.22790   0.22790   0.000001000.00000
  88         D26       -0.12210   0.12210   0.000001000.00000
  89         D27       -0.05179   0.05179  -0.000001000.00000
  90         D28       -0.01409   0.01409   0.000001000.00000
  91         D29       -0.05846   0.05846  -0.000001000.00000
  92         D30        0.01185  -0.01185   0.000001000.00000
  93         D31        0.04956  -0.04956   0.000001000.00000
  94         D32       -0.05624   0.05624  -0.000001000.00000
  95         D33        0.01407  -0.01407  -0.000001000.00000
  96         D34        0.05178  -0.05178  -0.000001000.00000
  97         D35       -0.14707   0.14707   0.000001000.00000
  98         D36       -0.12570   0.12570  -0.000001000.00000
  99         D37       -0.16046   0.16046   0.000001000.00000
 100         D38       -0.13819   0.13819  -0.000001000.00000
 101         D39       -0.04138   0.04138   0.000001000.00000
 102         D40       -0.01498   0.01498  -0.000001000.00000
 103         D41        0.01885  -0.01885   0.000001000.00000
 104         D42        0.02926  -0.02926   0.000001000.00000
 105         D43        0.16166  -0.16166   0.000001000.00000
 106         D44        0.16515  -0.16515  -0.000001000.00000
 107         D45        0.06646  -0.06646   0.000001000.00000
 108         D46        0.06994  -0.06994   0.000001000.00000
 109         D47       -0.09134   0.09134  -0.000001000.00000
 RFO step:  Lambda0=1.058056935D-02 Lambda=-5.01832178D-02.
 Linear search not attempted -- option 19 set.
 Maximum step size (   0.300) exceeded in Quadratic search.
    -- Step size scaled by   0.408
 Iteration  1 RMS(Cart)=  0.06937888 RMS(Int)=  0.00278833
 Iteration  2 RMS(Cart)=  0.00291796 RMS(Int)=  0.00108220
 Iteration  3 RMS(Cart)=  0.00000645 RMS(Int)=  0.00108218
 Iteration  4 RMS(Cart)=  0.00000002 RMS(Int)=  0.00108218
 Variable       Old X    -DE/DX   Delta X   Delta X   Delta X     New X
                                 (Linear)    (Quad)   (Total)
    R1        2.52328  -0.00029   0.00000  -0.00004  -0.00004   2.52324
    R2        2.05235  -0.00013   0.00000  -0.00001  -0.00001   2.05233
    R3        2.05592  -0.00006   0.00000  -0.00001  -0.00001   2.05591
    R4        2.83356  -0.00017   0.00000   0.00009   0.00009   2.83365
    R5        2.05839   0.00002   0.00000   0.00008   0.00008   2.05847
    R6        2.69510   0.00248   0.00000  -0.00033  -0.00033   2.69477
    R7        2.08708  -0.00028   0.00000   0.00007   0.00007   2.08715
    R8        2.08162  -0.00030   0.00000   0.00001   0.00001   2.08163
    R9        2.67988   0.00063   0.00000   0.00182   0.00182   2.68170
   R10        2.85292  -0.00167   0.00000   0.00419   0.00419   2.85711
   R11        2.08215  -0.00058   0.00000  -0.00111  -0.00111   2.08104
   R12        2.08350  -0.00164   0.00000  -0.00102  -0.00102   2.08247
   R13        3.06041  -0.07283   0.00000  -0.01071  -0.01020   3.05021
   R14        2.95954  -0.00395   0.00000  -0.11365  -0.11235   2.84719
   R15        2.06058  -0.00141   0.00000   0.00203   0.00203   2.06261
   R16        4.13285  -0.01463   0.00000   0.04991   0.04790   4.18075
   R17        2.05725  -0.00616   0.00000  -0.00244  -0.00244   2.05481
   R18        2.05834  -0.00195   0.00000  -0.00157  -0.00157   2.05677
   R19        4.41901  -0.02055   0.00000  -0.04474  -0.04492   4.37410
   R20        3.05839  -0.01766   0.00000   0.05842   0.05898   3.11737
   R21        2.57313  -0.13439   0.00000  -0.15570  -0.15570   2.41743
   R22        2.51265  -0.06859   0.00000  -0.00680  -0.00593   2.50671
    A1        2.12179  -0.00013   0.00000   0.00004   0.00004   2.12183
    A2        2.12366   0.00011   0.00000  -0.00004  -0.00004   2.12362
    A3        2.03774   0.00002   0.00000  -0.00001  -0.00001   2.03773
    A4        2.16752  -0.00036   0.00000   0.00021   0.00021   2.16773
    A5        2.10047   0.00012   0.00000  -0.00025  -0.00025   2.10022
    A6        2.01505   0.00023   0.00000   0.00003   0.00003   2.01508
    A7        1.90082   0.00008   0.00000   0.00074   0.00074   1.90157
    A8        1.91989   0.00022   0.00000  -0.00014  -0.00014   1.91976
    A9        1.93241   0.00013   0.00000  -0.00018  -0.00018   1.93224
   A10        1.90466  -0.00009   0.00000   0.00022   0.00022   1.90488
   A11        1.92709  -0.00039   0.00000  -0.00034  -0.00034   1.92674
   A12        1.87880   0.00005   0.00000  -0.00031  -0.00031   1.87849
   A13        1.97471   0.00012   0.00000   0.00075   0.00075   1.97547
   A14        1.88289   0.00153   0.00000   0.01124   0.01125   1.89414
   A15        1.94173  -0.00078   0.00000  -0.00045  -0.00045   1.94128
   A16        1.92932   0.00287   0.00000   0.00243   0.00247   1.93180
   A17        1.91602   0.00151   0.00000  -0.00352  -0.00356   1.91246
   A18        1.91183  -0.00623   0.00000  -0.01260  -0.01262   1.89921
   A19        1.88213   0.00096   0.00000   0.00246   0.00242   1.88455
   A20        2.12077  -0.01217   0.00000  -0.01909  -0.02081   2.09995
   A21        1.78850  -0.00396   0.00000  -0.01714  -0.01687   1.77162
   A22        2.00909   0.00829   0.00000   0.01143   0.01062   2.01971
   A23        1.51310   0.01781   0.00000   0.06121   0.06163   1.57473
   A24        2.04096  -0.00149   0.00000  -0.02190  -0.02157   2.01939
   A25        1.86021  -0.00489   0.00000   0.01258   0.01313   1.87334
   A26        2.11466  -0.00630   0.00000  -0.00388  -0.00273   2.11193
   A27        2.08664   0.00572   0.00000   0.02023   0.01953   2.10617
   A28        2.04056  -0.02861   0.00000  -0.06289  -0.06380   1.97677
   A29        2.09326  -0.00692   0.00000   0.00995   0.01013   2.10339
   A30        2.02752  -0.00034   0.00000   0.01575   0.01514   2.04266
   A31        2.02155   0.00286   0.00000  -0.01020  -0.01065   2.01090
   A32        1.16888   0.01673   0.00000   0.03131   0.03299   1.20187
   A33        1.77962   0.00822   0.00000   0.01496   0.01480   1.79442
   A34        2.07626   0.01378   0.00000   0.02491   0.02291   2.09917
   A35        1.27881   0.03488   0.00000   0.04551   0.04550   1.32432
   A36        1.62402   0.06154   0.00000   0.08998   0.09025   1.71427
   A37        2.40359  -0.05108   0.00000  -0.10814  -0.10868   2.29491
   A38        4.02762   0.01045   0.00000  -0.01816  -0.01844   4.00918
   A39        3.24483  -0.00186   0.00000   0.00577   0.00396   3.24879
   A40        1.26508   0.04703   0.00000   0.09390   0.09533   1.36041
    D1       -3.10604   0.00010   0.00000   0.00002   0.00002  -3.10602
    D2        0.01583   0.00002   0.00000  -0.00004  -0.00004   0.01579
    D3        0.03180  -0.00000   0.00000  -0.00016  -0.00016   0.03164
    D4       -3.12951  -0.00008   0.00000  -0.00022  -0.00022  -3.12974
    D5       -2.23209   0.00017   0.00000  -0.00062  -0.00062  -2.23271
    D6        1.96440   0.00010   0.00000  -0.00126  -0.00126   1.96314
    D7       -0.11003  -0.00018   0.00000  -0.00068  -0.00068  -0.11071
    D8        0.92836   0.00025   0.00000  -0.00056  -0.00056   0.92779
    D9       -1.15834   0.00017   0.00000  -0.00120  -0.00120  -1.15954
   D10        3.05042  -0.00011   0.00000  -0.00062  -0.00062   3.04980
   D11       -3.08488  -0.00013   0.00000  -0.00157  -0.00157  -3.08645
   D12       -0.98874   0.00013   0.00000  -0.00116  -0.00116  -0.98990
   D13        1.07300  -0.00010   0.00000  -0.00161  -0.00161   1.07139
   D14       -3.07610   0.00249   0.00000   0.00220   0.00220  -3.07390
   D15        1.10456   0.00012   0.00000  -0.00039  -0.00040   1.10416
   D16       -0.98608  -0.00247   0.00000  -0.00480  -0.00479  -0.99087
   D17       -1.60415   0.00916   0.00000   0.14082   0.14081  -1.46334
   D18        3.04185  -0.00655   0.00000   0.08303   0.08319   3.12503
   D19        1.03045  -0.00209   0.00000   0.07330   0.07312   1.10357
   D20        0.51443   0.01006   0.00000   0.14511   0.14510   0.65953
   D21       -1.12276  -0.00566   0.00000   0.08733   0.08748  -1.03528
   D22       -3.13416  -0.00119   0.00000   0.07759   0.07741  -3.05675
   D23        2.57799   0.00840   0.00000   0.13847   0.13850   2.71649
   D24        0.94080  -0.00731   0.00000   0.08068   0.08087   1.02168
   D25       -1.07059  -0.00285   0.00000   0.07095   0.07081  -0.99979
   D26        2.69526  -0.00204   0.00000  -0.01487  -0.01482   2.68044
   D27       -0.06496  -0.00960   0.00000  -0.03146  -0.03192  -0.09688
   D28       -2.22430   0.00149   0.00000  -0.00995  -0.00862  -2.23292
   D29       -1.79700   0.00330   0.00000   0.00116   0.00061  -1.79639
   D30        1.72596  -0.00426   0.00000  -0.01543  -0.01649   1.70948
   D31       -0.43337   0.00683   0.00000   0.00607   0.00681  -0.42656
   D32        0.06939   0.00681   0.00000   0.04470   0.04404   0.11343
   D33       -2.69083  -0.00075   0.00000   0.02811   0.02694  -2.66389
   D34        1.43302   0.01034   0.00000   0.04961   0.05024   1.48326
   D35        2.44200  -0.00272   0.00000   0.03380   0.03509   2.47710
   D36        0.32036   0.00605   0.00000   0.04084   0.04381   0.36416
   D37       -1.72425   0.00261   0.00000   0.04399   0.04461  -1.67964
   D38       -1.00347  -0.00204   0.00000  -0.00079   0.00216  -1.00131
   D39        1.57030  -0.00908   0.00000   0.02434   0.02661   1.59691
   D40        0.44680   0.00566   0.00000  -0.04046  -0.04471   0.40208
   D41        2.44529   0.01128   0.00000  -0.01867  -0.02244   2.42285
   D42       -1.86234   0.01215   0.00000  -0.03381  -0.03687  -1.89921
   D43       -3.01209  -0.00156   0.00000  -0.10419  -0.10394  -3.11604
   D44        0.02627   0.00031   0.00000  -0.10997  -0.10790  -0.08164
   D45       -2.76654  -0.00443   0.00000  -0.07979  -0.07823  -2.84477
   D46        0.27182  -0.00257   0.00000  -0.08557  -0.08219   0.18963
   D47       -0.25491   0.00325   0.00000   0.07837   0.07529  -0.17962
         Item               Value     Threshold  Converged?
 Maximum Force            0.134391     0.000015     NO 
 RMS     Force            0.019714     0.000010     NO 
 Maximum Displacement     0.267729     0.000060     NO 
 RMS     Displacement     0.069662     0.000040     NO 
 Predicted change in Energy=-4.372228D-02
 GradGradGradGradGradGradGradGradGradGradGradGradGradGradGradGradGradGrad

                          Input orientation:                          
 ---------------------------------------------------------------------
 Center     Atomic      Atomic             Coordinates (Angstroms)
 Number     Number       Type             X           Y           Z
 ---------------------------------------------------------------------
      1          6           0      -10.717902   -2.944337   -1.263060
      2          6           0       -9.440073   -2.639660   -1.502216
      3          6           0       -8.374349   -2.588383   -0.448596
      4          8           0       -7.700537   -1.334382   -0.532058
      5          6           0       -6.621985   -1.217674    0.382779
      6          6           0       -6.047555    0.176547    0.272885
      7          6           0       -4.961456    0.522584   -0.869908
      8          8           0       -4.953530    0.133304    1.307916
      9          1           0      -11.448627   -3.000737   -2.064535
     10          1           0      -11.077176   -3.151619   -0.257293
     11          1           0       -9.106220   -2.425206   -2.516667
     12          1           0       -7.645432   -3.402549   -0.608806
     13          1           0       -8.810709   -2.723722    0.553745
     14          1           0       -5.835808   -1.958569    0.168932
     15          1           0       -6.969021   -1.378683    1.416240
     16          1           0       -6.722198    0.989756    0.546553
     17          1           0       -4.851825    1.535374   -1.250154
     18          1           0       -4.564437   -0.259968   -1.513801
     19          6           0       -3.514502    0.890110    1.029073
     20          8           0       -2.923651    0.565960    2.116409
     21          8           0       -3.047185    1.523649   -0.038557
 ---------------------------------------------------------------------
                    Distance matrix (angstroms):
                    1          2          3          4          5
     1  C    0.000000
     2  C    1.335242   0.000000
     3  C    2.506451   1.499505   0.000000
     4  O    3.497258   2.381374   1.426010   0.000000
     5  C    4.739904   3.676530   2.375038   1.419092   0.000000
     6  C    5.823332   4.753019   3.685016   2.379746   1.511919
     7  C    6.731328   5.518841   4.637181   3.326414   2.712025
     8  O    7.022092   5.976223   4.711148   3.617410   2.337683
     9  H    1.086048   2.116806   3.497497   4.378744   5.697818
    10  H    1.087939   2.119444   2.767510   3.844417   4.898833
    11  H    2.106786   1.089293   2.199814   2.665430   4.004541
    12  H    3.174599   2.144975   1.104470   2.070324   2.608518
    13  H    2.643263   2.151777   1.101551   2.083678   2.662315
    14  H    5.182392   4.030800   2.687414   2.087633   1.101241
    15  H    4.866624   4.026605   2.629816   2.081572   1.101997
    16  H    5.892150   4.975637   4.064849   2.742657   2.215764
    17  H    7.380978   6.208581   5.482339   4.106863   3.657760
    18  H    6.718172   5.425394   4.590381   3.457355   2.957654
    19  C    8.476192   7.347047   6.156422   4.990830   3.810105
    20  O    9.192026   8.113828   6.799943   5.783106   4.456960
    21  O    8.961150   7.768170   6.742078   5.483208   4.524552
                    6          7          8          9         10
     6  C    0.000000
     7  C    1.614102   0.000000
     8  O    1.506669   2.212356   0.000000
     9  H    6.688067   7.478255   7.961276   0.000000
    10  H    6.054327   7.160803   7.123177   1.851179   0.000000
    11  H    4.889392   5.346059   6.198246   2.454084   3.084982
    12  H    4.017527   4.762202   4.839672   4.092052   3.458814
    13  H    4.015652   5.232784   4.858930   3.727028   2.444945
    14  H    2.148107   2.828392   2.540007   6.130108   5.392308
    15  H    2.138949   3.587701   2.521912   5.900315   4.777128
    16  H    1.091488   2.307558   2.107456   6.714234   6.063249
    17  H    2.365550   1.087359   2.918881   8.047193   7.855487
    18  H    2.362716   1.088398   2.875438   7.430154   7.235760
    19  C    2.738129   2.415550   1.649639   9.362662   8.670891
    20  O    3.648150   3.615608   2.227388  10.142821   9.270104
    21  O    3.303619   2.314673   2.716652   9.754941   9.294447
                   11         12         13         14         15
    11  H    0.000000
    12  H    2.594038   0.000000
    13  H    3.099011   1.780506   0.000000
    14  H    4.257439   2.442273   3.095735   0.000000
    15  H    4.596802   2.941833   2.438205   1.782194   0.000000
    16  H    5.169994   4.634605   4.260498   3.101759   2.535109
    17  H    5.948961   5.709523   6.088244   3.897392   4.481506
    18  H    5.130476   4.493035   5.326880   2.707991   3.952048
    19  C    7.404790   6.178524   6.429271   3.774026   4.151026
    20  O    8.284722   6.743225   6.922526   4.318167   4.542784
    21  O    7.645024   6.762876   7.183954   4.466017   5.091244
                   16         17         18         19         20
    16  H    0.000000
    17  H    2.650311   0.000000
    18  H    3.234625   1.837214   0.000000
    19  C    3.245316   2.720234   2.981820   0.000000
    20  O    4.131950   3.998920   4.068508   1.279248   0.000000
    21  O    3.759404   2.173667   2.767614   1.326496   2.361421
                   21
    21  O    0.000000
 Symmetry turned off by external request.
 Stoichiometry    C7H10O4
 Framework group  C1[X(C7H10O4)]
 Deg. of freedom    57
 Full point group                 C1      NOp   1
 Rotational constants (GHZ):           4.1049297           0.3465726           0.3283204
 Basis read from rwf:  (5D, 7F)
 Pseudo-potential data read from rwf file.
   248 basis functions,   422 primitive gaussians,   259 cartesian basis functions
    42 alpha electrons       42 beta electrons
       nuclear repulsion energy       577.8046133010 Hartrees.
 NAtoms=   21 NActive=   21 NUniq=   21 SFac= 1.00D+00 NAtFMM=   60 NAOKFM=F Big=F
 Integral buffers will be    131072 words long.
 Raffenetti 2 integral format.
 Two-electron integral symmetry is turned off.
 One-electron integrals computed using PRISM.
   1 Symmetry operations used in ECPInt.
 ECPInt:  NShTT=    3655 NPrTT=   16881 LenC2=    3325 LenP2D=   10501.
 LDataN:  DoStor=T MaxTD1= 4 Len=   56
 NBasis=   248 RedAO= T EigKep=  2.89D-05  NBF=   248
 NBsUse=   248 1.00D-06 EigRej= -1.00D+00 NBFU=   248
 Initial guess from the checkpoint file:  "AGE_CO2_TS_QST3_opt_freq.chk"
 B after Tr=     0.015671   -0.027067   -0.081902
         Rot=    0.999994   -0.001381   -0.003109    0.000392 Ang=  -0.39 deg.
 ExpMin= 4.38D-02 ExpMax= 5.48D+03 ExpMxC= 8.25D+02 IAcc=3 IRadAn=         5 AccDes= 0.00D+00
 Harris functional with IExCor=  402 and IRadAn=       5 diagonalized for initial guess.
 HarFok:  IExCor=  402 AccDes= 0.00D+00 IRadAn=         5 IDoV= 1 UseB2=F ITyADJ=14
 ICtDFT=  3500011 ScaDFX=  1.000000  1.000000  1.000000  1.000000
 FoFCou: FMM=F IPFlag=           0 FMFlag=      100000 FMFlg1=           0
         NFxFlg=           0 DoJE=T BraDBF=F KetDBF=T FulRan=T
         wScrn=  0.000000 ICntrl=       500 IOpCl=  0 I1Cent=   200000004 NGrid=           0
         NMat0=    1 NMatS0=      1 NMatT0=    0 NMatD0=    1 NMtDS0=    0 NMtDT0=    0
 Symmetry not used in FoFCou.
 Gradient too large for Newton-Raphson -- use scaled steepest descent instead.
     Accept linear search using points  3 and  4.
 Gradient too large for Newton-Raphson -- use scaled steepest descent instead.
 Gradient too large for Newton-Raphson -- use scaled steepest descent instead.
     Accept linear search using points  1 and  2.
 Gradient too large for Newton-Raphson -- use scaled steepest descent instead.
 Gradient too large for Newton-Raphson -- use scaled steepest descent instead.
     Accept linear search using points  1 and  2.
 Gradient too large for Newton-Raphson -- use scaled steepest descent instead.
     Accept linear search using points  2 and  3.
 Gradient too large for Newton-Raphson -- use scaled steepest descent instead.
     Accept linear search using points  1 and  2.
 Gradient too large for Newton-Raphson -- use scaled steepest descent instead.
 Restarting incremental Fock formation.
     Minimum is close to point  3 DX=  2.18D-02 DF= -6.46D-08 DXR=  1.43D-02 DFR=  2.06D-04 which will be used.
 Gradient too large for Newton-Raphson -- use scaled steepest descent instead.
     Accept linear search using points  1 and  2.
 Gradient too large for Newton-Raphson -- use scaled steepest descent instead.
     Accept linear search using points  2 and  3.
     Minimum is close to point  3 DX= -9.28D-02 DF= -3.69D-07 DXR=  5.78D-02 DFR=  2.34D-03 which will be used.
 Gradient too large for Newton-Raphson -- use scaled steepest descent instead.
     Accept linear search using points  1 and  2.
 LinEq1:  Iter=  0 NonCon=     1 RMS=4.31D-04 Max=3.38D-02 NDo=     1
 AX will form     1 AO Fock derivatives at one time.
 LinEq1:  Iter=  1 NonCon=     1 RMS=2.56D-04 Max=1.48D-02 NDo=     1
 LinEq1:  Iter=  2 NonCon=     1 RMS=1.72D-04 Max=5.05D-03 NDo=     1
 LinEq1:  Iter=  3 NonCon=     1 RMS=2.58D-04 Max=9.08D-03 NDo=     1
 LinEq1:  Iter=  4 NonCon=     1 RMS=8.39D-05 Max=2.35D-03 NDo=     1
 LinEq1:  Iter=  5 NonCon=     1 RMS=5.40D-05 Max=9.92D-04 NDo=     1
 LinEq1:  Iter=  6 NonCon=     1 RMS=3.44D-05 Max=1.22D-03 NDo=     1
 LinEq1:  Iter=  7 NonCon=     1 RMS=3.01D-05 Max=8.40D-04 NDo=     1
 LinEq1:  Iter=  8 NonCon=     1 RMS=1.86D-05 Max=3.87D-04 NDo=     1
 LinEq1:  Iter=  9 NonCon=     1 RMS=1.00D-05 Max=2.16D-04 NDo=     1
 LinEq1:  Iter= 10 NonCon=     1 RMS=6.53D-06 Max=1.54D-04 NDo=     1
 LinEq1:  Iter= 11 NonCon=     1 RMS=3.71D-06 Max=6.66D-05 NDo=     1
 LinEq1:  Iter= 12 NonCon=     1 RMS=1.88D-06 Max=5.03D-05 NDo=     1
 LinEq1:  Iter= 13 NonCon=     1 RMS=1.30D-06 Max=3.84D-05 NDo=     1
 LinEq1:  Iter= 14 NonCon=     1 RMS=8.23D-07 Max=1.69D-05 NDo=     1
 LinEq1:  Iter= 15 NonCon=     1 RMS=3.38D-07 Max=5.84D-06 NDo=     1
 LinEq1:  Iter= 16 NonCon=     1 RMS=1.13D-07 Max=1.80D-06 NDo=     1
 LinEq1:  Iter= 17 NonCon=     1 RMS=4.48D-08 Max=4.92D-07 NDo=     1
 LinEq1:  Iter= 18 NonCon=     1 RMS=1.80D-08 Max=1.80D-07 NDo=     1
 LinEq1:  Iter= 19 NonCon=     0 RMS=6.88D-09 Max=9.79D-08 NDo=     1
 Linear equations converged to 1.315D-08 1.315D-07 after    19 iterations.
     Accept linear search using points  1 and  2.
     Minimum is close to point  2 DX= -5.75D-02 DF= -2.09D-06 DXR=  6.10D-02 DFR=  3.93D-03 which will be used.
 LinEq1:  Iter=  0 NonCon=     1 RMS=7.76D-05 Max=4.51D-03 NDo=     1
 LinEq1:  Iter=  1 NonCon=     1 RMS=4.12D-05 Max=1.88D-03 NDo=     1
 LinEq1:  Iter=  2 NonCon=     1 RMS=6.48D-05 Max=3.08D-03 NDo=     1
 LinEq1:  Iter=  3 NonCon=     1 RMS=6.63D-05 Max=2.75D-03 NDo=     1
 LinEq1:  Iter=  4 NonCon=     1 RMS=3.55D-05 Max=1.10D-03 NDo=     1
 LinEq1:  Iter=  5 NonCon=     1 RMS=3.62D-05 Max=1.14D-03 NDo=     1
 LinEq1:  Iter=  6 NonCon=     1 RMS=1.59D-05 Max=3.79D-04 NDo=     1
 LinEq1:  Iter=  7 NonCon=     1 RMS=9.19D-06 Max=2.41D-04 NDo=     1
[...]
 ,-0.00024164,-0.00023389,0.00023897,-0.00010637,0.00010636,-0.00004778
 ,-0.00000961,0.00000407,-0.00001010,-0.00002374,-0.00006749,-0.0000142
 7,-0.00043018,0.00255221,0.00038279,0.01269982,0.02715064,0.09243538,0
 .02778218,-0.29962540,0.00103947,0.00105747,-0.00341273,-0.00148055,-0
 .00093318,0.00107093,-0.00017433,-0.00002112,0.00000407,-0.00003624,0.
 00001197,0.00001001,0.00000931,-0.00000831,-0.00002735,-0.00002930,-0.
 00000859,-0.00001586,0.00003183,0.00002857,0.00003591,0.00934844,0.002
 30309,-0.01469862,-0.10230364,-0.03115102,0.31431956,-0.00843060,-0.00
 344162,0.03137361,-0.08709518,-0.00980667,0.08521660,0.00819146,0.0019
 6623,-0.02236194,0.00145391,0.00079947,0.00144904,-0.00006521,0.000056
 07,-0.00014292,-0.00002476,-0.00004861,0.00010179,-0.00000282,-0.00006
 890,-0.00006003,0.00001794,0.00003988,0.00001170,0.00107059,0.00042346
 ,-0.00015058,-0.00484710,-0.00100704,0.00052646,0.09196093,-0.00009874
 ,0.00582395,0.00221177,-0.00963984,-0.04293663,0.02936418,-0.00202497,
 0.00205088,0.00237852,0.00123422,0.00075237,0.00003090,-0.00016027,0.0
 0005186,-0.00014535,-0.00002623,-0.00004520,-0.00004187,-0.00010881,-0
 .00001674,-0.00001153,0.00015631,0.00009870,0.00007225,0.00043323,-0.0
 0752473,-0.00078434,-0.00083588,0.01146381,0.00091757,0.01120474,0.029
 07695,0.00016954,0.00064999,-0.00185203,0.08734740,0.02964118,-0.29789
 764,0.00963788,0.00306967,-0.01950398,0.00031870,-0.00024214,0.0017587
 5,-0.00016986,-0.00024688,0.00020886,-0.00004221,0.00001229,0.00001637
 ,-0.00002606,-0.00004935,-0.00010656,-0.00005166,-0.00004598,0.0000293
 7,0.00015643,-0.00094115,0.00109335,0.00016702,0.00123719,0.00150548,-
 0.09396939,-0.03391022,0.31574141,-0.00070468,0.00036659,-0.00334084,-
 0.01594619,0.01655308,0.00307772,-0.13237405,0.11785222,0.02130814,0.0
 0780538,-0.02611641,-0.00417893,0.00465346,-0.00301948,0.00099100,0.00
 038279,-0.00010253,0.00004721,0.00002836,0.00004268,-0.00002021,-0.000
 13647,0.00003444,0.00003861,-0.00042124,-0.00206417,-0.00025191,0.0000
 3286,0.00134944,-0.00000618,0.00073084,-0.00051455,-0.00039964,0.14263
 912,-0.00047736,0.00003077,0.00063124,0.00277601,0.00203537,0.00026153
 ,0.11168579,-0.19262814,-0.02658956,-0.00136546,-0.04212022,-0.0030554
 5,0.00467444,0.00052454,0.00327740,-0.00016776,0.00050567,0.00006144,0
 .00032352,0.00012482,-0.00011845,-0.00068447,-0.00041688,-0.00011684,0
 .00021187,-0.00035557,-0.00008896,-0.00009907,0.00008512,0.00001879,0.
 00015697,0.00006381,0.00020540,-0.11710988,0.22915127,-0.00087627,0.00
 017348,-0.00218052,-0.01608362,0.01849798,0.00486846,0.02033720,-0.024
 63964,-0.05983545,-0.00301962,0.00412560,0.00426815,0.00095831,-0.0011
 5005,0.00044821,-0.00007157,0.00006736,-0.00009998,0.00002555,0.000085
 98,0.00007851,-0.00002998,-0.00000556,-0.00004454,-0.00048878,-0.00159
 000,0.00009547,-0.00023606,0.00041374,0.00016371,0.00086939,-0.0004223
 8,0.00053637,-0.01965043,0.02733386,0.05531787,0.00129290,0.00018922,-
 0.00121445,0.00967247,0.00092459,-0.02176264,-0.09219029,0.00216232,0.
 09137373,-0.01593452,-0.01404995,0.01519117,0.00260147,-0.00007061,0.0
 0503610,0.00010769,0.00009817,-0.00037858,0.00025430,0.00032908,-0.000
 00233,-0.00032031,-0.00036261,-0.00018961,0.00020104,-0.00008135,0.000
 12736,-0.00016560,0.00016143,0.00065061,-0.00293519,0.00036694,-0.0033
 4061,-0.00621029,0.00195389,0.01792465,0.10370523,-0.00062032,-0.00059
 153,-0.00006933,0.00099587,0.00128745,0.00326452,0.00344299,-0.0496368
 8,-0.00320917,-0.02489842,-0.01231498,0.02734562,0.00262339,0.00042778
 ,0.00377894,0.00003018,0.00022073,0.00002538,0.00037097,0.00021064,-0.
 00004487,-0.00028724,-0.00035822,-0.00021248,-0.00012007,-0.00015439,-
 0.00008667,0.00007115,0.00025069,0.00000994,-0.00026483,0.00128808,0.0
 0053653,0.01077324,0.00211272,-0.02289040,0.00781073,0.05694934,0.0017
 0720,0.00024893,0.00144620,0.00955801,-0.00028123,-0.02244197,0.089916
 24,0.00019506,-0.25456961,0.00331799,0.00711067,0.00197020,-0.00171959
 ,-0.00029329,0.00217760,-0.00020035,-0.00024566,0.00041836,-0.00008179
 ,-0.00015645,-0.00001459,0.00027613,0.00027873,-0.00001147,-0.00011417
 ,0.00040453,0.00059558,-0.00115922,-0.00057684,0.00066722,-0.00310931,
 0.00023492,-0.00178739,0.00156242,-0.00058241,-0.00345672,-0.10184309,
 -0.00657371,0.27498347,0.00008993,-0.00009137,0.00000595,0.00005925,-0
 .00070106,-0.00013009,0.00256906,0.00583402,0.00046124,-0.02965220,0.0
 1681566,-0.00969626,-0.14041817,0.11216315,0.03914693,0.00897566,-0.01
 294025,-0.00309707,0.00121550,-0.00054434,-0.00073782,0.00184567,0.000
 17759,0.00092058,-0.00001225,0.00014002,-0.00000465,0.00001513,-0.0000
 4012,-0.00000961,0.00002606,0.00009144,0.00004963,0.00032291,-0.001745
 55,0.00000298,-0.00032278,-0.00036644,0.00021066,0.16213973,0.00005487
 ,-0.00001806,-0.00000560,-0.00020285,0.00025670,-0.00009197,-0.0017314
 0,0.00279102,0.00047620,0.00225152,0.00353541,0.00530449,0.11045631,-0
 .19045890,-0.04294792,0.01715603,-0.02452322,-0.00705745,0.00209706,0.
 00081072,-0.00157064,0.00072504,0.00285625,0.00130927,0.00002225,-0.00
 002602,0.00000347,-0.00000137,-0.00002016,0.00000380,0.00000869,-0.000
 02400,0.00000460,0.00173158,0.00047610,0.00009662,0.00018659,-0.000224
 63,-0.00019785,-0.12614605,0.20509939,0.00007285,-0.00003717,-0.000078
 43,-0.00005267,-0.00003192,0.00000428,0.00117087,0.00311581,0.00051864
 ,-0.02553025,0.01829980,0.00169866,0.03901025,-0.04469715,-0.06633605,
 -0.00080073,0.00385886,0.00064622,-0.00099163,0.00099959,0.00085719,-0
 .00023730,-0.00048149,-0.00052076,-0.00000844,0.00002219,0.00000154,0.
 00000416,-0.00002456,-0.00000058,-0.00001114,0.00003753,-0.00000202,0.
 00084764,-0.00070860,0.00011400,-0.00016705,-0.00061420,-0.00030285,-0
 .03150000,0.04207289,0.06794962,-0.00001917,-0.00000821,0.00008747,-0.
 00012919,-0.00001054,-0.00009117,0.00427245,0.00316360,-0.00315343,0.0
 0236693,0.00068249,-0.03605005,-0.08449963,-0.00765542,0.08764800,-0.0
 0726213,-0.00138944,0.01533822,0.00047494,-0.00379153,0.00050853,0.001
 56004,0.00168087,-0.00233328,-0.00000189,-0.00001505,0.00000442,-0.000
 04523,0.00003939,0.00000911,-0.00002095,-0.00004876,0.00019177,-0.0006
 4741,-0.00027969,0.00031153,0.00014597,0.00037002,0.00171822,-0.004860
 71,-0.00160743,0.01823942,0.08769257,0.00003065,-0.00002128,0.00003816
 ,-0.00008729,-0.00010808,-0.00002749,0.00130924,0.00111317,-0.00217376
 ,-0.00127245,0.00255465,0.00131169,-0.00504395,-0.05444961,0.01728879,
 -0.01585087,-0.00621315,0.03006910,-0.00013393,-0.00544033,-0.00014072
 ,0.00229832,0.00279219,-0.00319258,0.00000844,0.00001123,0.00000776,-0
 .00002035,0.00001679,0.00000153,-0.00001028,-0.00005262,0.00007466,0.0
 0014456,-0.00011077,-0.00014926,0.00024245,0.00044422,0.00051365,0.010
 07671,0.00313614,-0.02258303,0.00816127,0.05466232,-0.00006745,-0.0000
 0982,-0.00007800,-0.00039601,-0.00031122,0.00049618,0.00279432,0.00349
 974,0.00096615,-0.00975135,0.00156551,-0.02868878,0.08481114,0.0184140
 0,-0.26011052,0.00153211,-0.00064326,-0.00260434,-0.00120657,0.0004939
 7,-0.00053956,0.00135253,0.00084021,0.00174955,-0.00003467,0.00004874,
 0.00000933,-0.00003344,-0.00000679,0.00000495,0.00023555,0.00006667,0.
 00023886,0.00000452,-0.00054098,-0.00023127,-0.00133578,-0.00122390,0.
 00030512,0.00456919,0.00101016,-0.00527477,-0.08231734,-0.02283768,0.2
 9285999,-0.00001132,0.00000765,-0.00002780,-0.00003297,0.00007926,0.00
 002613,0.00016913,-0.00016066,0.00001784,0.00104194,0.00079913,0.00076
 132,0.01023615,-0.01345251,-0.00421789,-0.13278571,0.11664466,0.043315
 01,-0.00622544,0.01066587,0.00405319,-0.02684726,0.01562401,0.00039668
 ,-0.00000766,-0.00001613,-0.00000189,-0.00000153,0.00000018,0.00000317
 ,-0.00000398,-0.00000287,-0.00000740,-0.00016503,0.00012839,0.00000770
 ,-0.00000572,-0.00000295,0.00001530,-0.00166855,-0.00306664,-0.0002589
 6,0.00081193,0.00085075,-0.00009327,0.15497410,-0.00002522,0.00003159,
 -0.00002944,-0.00007118,0.00006470,0.00002414,-0.00044889,-0.00018127,
 -0.00003226,0.00023288,0.00207356,0.00058945,0.01587247,-0.02275649,-0
 .00742268,0.12101375,-0.21190635,-0.05723527,-0.00446414,0.00544738,0.
 00305680,0.00207838,0.00435519,0.00447062,-0.00000784,-0.00001707,0.00
 000227,-0.00000647,-0.00001351,0.00000424,-0.00000124,-0.00001853,-0.0
 0000847,0.00006439,0.00036030,0.00005335,0.00001778,-0.00002405,0.0000
 0112,-0.00276896,-0.00325302,0.00062337,0.00015877,0.00134865,0.000249
 07,-0.12840020,0.22468021,-0.00000852,0.00001412,0.00000963,0.00001239
 ,-0.00000388,-0.00001495,-0.00006566,-0.00006679,-0.00003316,0.0000480
 1,0.00001894,0.00008311,-0.00084567,0.00383337,0.00247656,0.04156820,-
 0.05493482,-0.07067700,0.01806522,-0.02578648,-0.01067719,-0.01916660,
 0.01721602,0.00510657,0.00000231,-0.00000343,-0.00000169,0.00000153,-0
 .00000510,-0.00000201,0.00000251,-0.00001813,-0.00001205,-0.00002519,0
 .00003751,-0.00003008,0.00003435,0.00003755,-0.00002365,-0.00004063,0.
 00093693,0.00059331,-0.00062556,0.00012617,0.00051718,-0.04279276,0.05
 530593,0.07270347,-0.00001916,0.00001301,-0.00002233,-0.00001217,-0.00
 000475,0.00003367,0.00002656,0.00008478,0.00004676,-0.00026366,-0.0000
 5297,-0.00045587,-0.00041239,-0.00069990,0.00229294,0.01566240,-0.0133
 4364,-0.00006717,-0.05231978,0.02520905,0.00697105,0.00473919,0.003873
 55,0.01662852,-0.00000770,-0.00000245,-0.00000293,0.00000669,-0.000006
 24,-0.00000249,-0.00000716,-0.00001163,-0.00002406,-0.00000387,-0.0000
 0653,0.00000978,0.00002230,-0.00001174,-0.00000455,-0.00003661,-0.0001
 0586,0.00009540,-0.00012963,-0.00044327,0.00027133,-0.00050319,0.00010
 066,-0.00116282,0.03636603,0.00000515,0.00000207,-0.00000656,-0.000011
 67,0.00001155,0.00002271,-0.00004127,-0.00005709,0.00001014,0.00002083
 ,0.00004882,-0.00013348,0.00018010,-0.00037454,-0.00015107,0.00622868,
 0.00365135,-0.00396341,0.01826160,-0.26387344,0.15338584,0.00051359,0.
 00239891,0.00765903,0.00000208,-0.00000043,0.00000160,0.00000333,0.000
 00060,-0.00000445,-0.00000849,-0.00001185,-0.00001183,0.00000537,0.000
 01960,0.00000513,0.00000722,0.00001361,-0.00001207,-0.00004421,0.00025
 491,-0.00001515,0.00003445,0.00023401,-0.00004990,-0.00026641,0.000296
 13,-0.00002556,-0.01365421,0.27801064,0.00002077,-0.00000651,0.0000212
 2,-0.00001973,0.00003647,-0.00001194,0.00008880,-0.00011009,0.00013206
 ,-0.00020473,-0.00021247,0.00017666,0.00024618,-0.00233979,-0.00496636
 ,0.01247409,0.02010381,-0.00346219,0.00010028,0.15909513,-0.14938094,0
 .00021436,0.00211853,0.01402919,0.00000746,-0.00000224,0.00000004,-0.0
 0000310,0.00000429,-0.00000272,0.00001609,0.00000270,0.00001754,-0.000
 01223,-0.00001444,-0.00000896,-0.00005612,-0.00002867,0.00002394,-0.00
 015607,0.00005303,0.00018859,0.00088214,0.00139267,0.00024844,-0.00104
 039,-0.00034666,0.00062497,-0.00672019,-0.15586692,0.14079359,0.000003
 42,0.00000277,-0.00001513,-0.00001245,-0.00002753,0.00003995,-0.000156
 40,-0.00007713,-0.00010385,0.00021366,-0.00016461,-0.00018361,0.001223
 99,0.00238817,-0.00087447,-0.01660147,0.02031943,0.00289155,-0.1483346
 5,0.13258219,0.06674383,0.00590366,-0.00558315,-0.01489729,0.00000064,
 0.00000257,0.00000352,0.00000464,0.00000194,-0.00000521,-0.00001979,-0
 .00000656,-0.00002181,-0.00000492,-0.00002595,0.00001431,0.00004498,0.
 00003760,-0.00001941,0.00006408,-0.00103694,-0.00002328,0.00012336,-0.
 00032120,-0.00013784,-0.00015857,-0.00161430,0.00457966,0.00679626,-0.
 00165613,0.00418136,0.14736479,-0.00000240,-0.00000237,0.00000442,0.00
 000323,-0.00002669,-0.00000829,-0.00009834,0.00005465,-0.00004548,0.00
 018739,-0.00024106,0.00023492,-0.00050604,0.00248326,-0.00089738,-0.00
 656272,0.01051147,0.00238682,0.13705485,-0.23267467,-0.05561535,0.0022
 3372,-0.00126350,-0.00416556,0.00000026,0.00000466,0.00000134,-0.00000
 161,-0.00000067,-0.00000017,0.00000234,0.00000223,0.00000194,-0.000001
 28,-0.00002248,-0.00001089,0.00000463,-0.00000797,0.00000381,0.0004603
 9,-0.00020499,-0.00014663,0.00007395,-0.00010591,0.00004429,-0.0004352
 5,0.00017132,0.00253705,0.01609134,-0.00803854,-0.00590222,-0.14900472
 ,0.22749190,-0.00001302,-0.00000213,-0.00002764,0.00000527,-0.00001914
 ,0.00004114,0.00012202,0.00014946,-0.00006178,-0.00026617,0.00019191,-
 0.00000411,0.00071656,-0.00041680,0.00069249,0.00815026,-0.01308500,-0
 .00911582,0.05036655,-0.06019714,-0.06755072,0.00748058,-0.00345767,-0
 .00730000,-0.00000983,0.00000229,-0.00000040,0.00000450,0.00000071,0.0
 0000012,-0.00000995,0.00000688,-0.00000887,0.00001066,-0.00000216,0.00
 001880,-0.00000191,-0.00000989,0.00000036,-0.00005339,0.00066812,-0.00
 005148,-0.00045860,0.00005858,0.00014229,0.00072095,0.00089858,-0.0018
 3622,-0.00654364,0.01181904,0.01185331,-0.06358748,0.06113122,0.071791
 35,0.00018085,0.00008568,0.00029277,0.00008283,0.00045040,-0.00031027,
 -0.00152053,-0.00240598,0.00033952,0.00410910,0.00303468,0.00071909,-0
 .00113113,-0.00181565,-0.00016183,-0.01366908,-0.00578346,-0.01077858,
 -0.00228926,0.01290197,-0.01665660,-0.00396973,0.05936002,0.02317398,0
 .00012942,-0.00006466,0.00003456,-0.00003764,-0.00001547,-0.00003951,-
 0.00000246,-0.00013446,0.00000914,0.00005360,0.00032561,-0.00000685,0.
 00020477,0.00024578,-0.00015734,0.00007264,-0.00048598,0.00023413,0.00
 049947,0.00034021,-0.00013643,0.00063901,-0.00200749,0.00099945,-0.003
 78052,-0.00162065,-0.00352712,0.00283937,0.00081451,0.00171350,0.31763
 632,0.00030091,0.00002573,0.00047144,0.00023328,0.00077500,-0.00059713
 ,-0.00146991,-0.00308778,0.00106494,0.00733481,0.00673604,0.00098015,0
 .00494033,-0.00686700,0.00531835,0.00641917,0.03186327,-0.01929989,0.0
 0626909,0.06679012,-0.03982092,0.06393266,0.02047472,0.09834660,0.0001
 9298,-0.00009558,0.00003551,-0.00005757,0.00003459,-0.00003612,0.00000
 053,-0.00011523,0.00006922,0.00007555,0.00041551,-0.00001938,0.0002607
 7,0.00033066,-0.00018407,-0.00042309,-0.00103687,0.00029272,0.00030331
 ,0.00005263,-0.00051776,0.00303148,-0.00135427,0.00122941,-0.01546985,
 -0.00845560,-0.01333924,0.00625702,0.00258332,0.00374442,-0.09113809,0
 .13362683,0.00012304,0.00009156,0.00022596,0.00004438,0.00036342,-0.00
 017324,-0.00148024,-0.00191502,0.00063598,0.00221087,0.00208293,0.0002
 4831,-0.00298643,-0.00267819,-0.00084102,-0.01274233,-0.00470912,-0.01
 115468,-0.02295621,-0.05152629,-0.00324340,0.00567177,0.02274335,-0.07
 027861,0.00009279,-0.00005865,0.00001940,-0.00001234,-0.00002170,-0.00
 005592,-0.00001134,-0.00014222,-0.00004645,0.00006238,0.00026200,-0.00
 000511,0.00015671,0.00014240,-0.00019470,0.00031165,0.00063243,0.00009
 068,0.00075025,0.00076381,-0.00005936,-0.00009704,0.00068866,0.0020991
 9,0.00802944,0.00459015,0.00622877,-0.00245750,-0.00156107,-0.00236136
 ,0.36095884,-0.13575000,1.13826519,-0.00007883,-0.00004758,-0.00013782
 ,-0.00006064,-0.00023369,0.00014558,0.00063300,0.00116069,-0.00017181,
 -0.00197215,-0.00182742,-0.00021212,0.00011103,0.00172361,-0.00107529,
 0.00434740,-0.00581662,0.00108845,0.00074047,-0.00275570,0.00275012,-0
 .01993052,-0.02874318,-0.03036788,-0.00005825,0.00003760,-0.00001464,0
 .00001628,0.00000803,0.00001837,0.00000409,0.00006682,-0.00000125,-0.0
 0001620,-0.00015891,-0.00000518,-0.00010433,-0.00011989,0.00007536,0.0
 0003926,0.00010731,-0.00013590,-0.00020549,-0.00009686,0.00007121,-0.0
 0036589,0.00059906,0.00020332,0.00086665,0.00006615,0.00068839,-0.0011
 1891,-0.00024109,-0.00058825,-0.20764225,-0.00539199,-0.27960460,0.208
 35788,-0.00006852,-0.00000583,-0.00011293,-0.00006257,-0.00017769,0.00
 014010,0.00035364,0.00073863,-0.00017793,-0.00178761,-0.00167778,-0.00
 018708,-0.00069370,0.00174889,-0.00161691,-0.00283019,-0.00947110,-0.0
 0054814,-0.00433632,-0.01619737,0.00678587,-0.03500278,-0.01441117,-0.
 04358930,-0.00004536,0.00002327,-0.00000960,0.00001383,-0.00001018,0.0
 0000926,0.00000136,0.00002904,-0.00001416,-0.00002393,-0.00010122,0.00
 000301,-0.00007797,-0.00009796,0.00004528,0.00006492,0.00018226,-0.000
 05666,-0.00007324,-0.00001038,0.00008876,-0.00021761,0.00046175,0.0000
 7663,0.00364825,0.00205993,0.00308660,-0.00148616,-0.00071563,-0.00095
 052,-0.01001269,-0.05673704,-0.04867646,0.03951157,0.07199469,-0.00011
 300,-0.00005795,-0.00021251,-0.00009401,-0.00035480,0.00020490,0.00101
 669,0.00166979,-0.00051223,-0.00275335,-0.00271329,-0.00013368,0.00044
 018,0.00310349,-0.00183481,0.00736245,-0.00859231,0.00658919,0.0064831
 9,0.01455105,-0.00011870,-0.03365277,-0.02649177,-0.00507292,-0.000083
 61,0.00005525,-0.00001529,0.00001596,0.00000358,0.00003639,0.00000840,
 0.00009995,0.00001572,-0.00004092,-0.00022519,0.00000063,-0.00015368,-
 0.00015032,0.00014883,-0.00002703,-0.00008960,-0.00012106,-0.00045251,
 -0.00034126,0.00017950,-0.00050042,0.00018673,-0.00070764,-0.00226920,
 -0.00187506,-0.00172875,0.00023825,0.00023597,0.00070747,-0.26724384,-
 0.03367224,-0.62937159,0.33595320,0.03939663,0.71938634,-0.00004422,-0
 .00004813,-0.00008309,-0.00001294,-0.00011955,0.00007519,0.00063009,0.
 00079396,-0.00001594,-0.00090202,-0.00050607,-0.00032010,0.00251410,0.
 00001494,0.00056903,0.00400584,0.00038848,0.00303371,-0.00264954,0.013
 30550,-0.00657333,0.00825568,-0.02305109,0.01978453,-0.00003789,0.0000
 2025,-0.00001281,0.00001179,0.00001797,0.00001490,-0.00000060,0.000059
 88,0.00000644,-0.00001897,-0.00011585,0.00000695,-0.00006408,-0.000080
 04,0.00005127,-0.00046362,-0.00041272,0.00004265,-0.00012624,-0.000182
 17,-0.00013174,0.00091055,-0.00032218,-0.00078354,-0.00699025,-0.00802
 549,-0.00718021,0.00182431,-0.00007316,0.00224139,-0.09240477,0.014398
 62,-0.05606411,0.01643740,0.01312506,-0.04413400,0.06912539,-0.0001248
 2,-0.00000337,-0.00017780,-0.00006608,-0.00025779,0.00022699,0.0007375
 8,0.00122585,-0.00030450,-0.00275023,-0.00199101,-0.00094949,0.0001045
 7,0.00203110,-0.00075961,0.00905626,-0.00488058,0.01054289,0.00359551,
 0.00163794,0.00574342,-0.03386844,-0.06695739,0.02541677,-0.00007783,0
 .00002549,-0.00002064,0.00002640,-0.00001473,0.00001455,-0.00000205,0.
 00004386,-0.00003250,-0.00004090,-0.00015034,0.00002145,-0.00007329,-0
 .00012531,0.00006689,-0.00001246,0.00039098,0.00007381,0.00021120,0.00
 014611,-0.00017979,-0.00181014,0.00023377,-0.00052545,-0.00520760,-0.0
 0619065,-0.00772397,-0.00058732,0.00000168,-0.00053076,0.03792573,-0.1
 8595907,0.21467802,0.00215210,0.02237489,0.01526134,-0.00918820,0.2384
 1858,0.00001495,-0.00004268,0.00001882,0.00004782,0.00002796,-0.000092
 40,0.00043994,0.00021036,0.00011767,0.00050767,0.00041066,0.00012272,0
 .00283340,-0.00048511,0.00091402,0.01127635,0.00887062,-0.00502422,0.0
 0420702,0.04492686,-0.02676761,0.02358327,0.04442788,0.04960364,0.0000
 0249,0.00000330,-0.00000522,-0.00001060,0.00001964,0.00002284,0.000015
 44,0.00005221,0.00005488,-0.00002384,-0.00004615,-0.00001756,-0.000048
 82,-0.00002727,0.00006606,-0.00022621,-0.00061098,0.00002528,-0.000207
 13,-0.00020078,-0.00013096,-0.00027948,-0.00107953,-0.00019834,-0.0171
 0365,-0.01537819,-0.01477646,0.00363444,0.00177127,0.00307107,-0.08945
 659,0.13168400,-0.43002803,-0.02867926,0.04630755,-0.08743981,0.089472
 80,-0.26084161,0.51046358\\-0.00000009,-0.00000011,0.00000048,-0.00000
 010,-0.00000015,0.00000038,-0.00000003,-0.00000001,0.00000031,-0.00000
 002,-0.00000003,0.00000009,0.00000004,0.00000008,0.00000002,0.00000004
 ,0.00000006,-0.00000022,-0.00000004,-0.00000012,-0.00000030,0.00000010
 ,0.00000015,-0.00000030,-0.00000014,-0.00000022,0.00000053,-0.00000002
 ,0.00000004,0.00000052,-0.00000017,-0.00000030,0.00000033,-0.00000005,
 -0.00000004,0.00000040,0.00000004,0.00000013,0.00000035,0.00000002,0.0
 0000005,0.00000009,0.00000011,0.00000023,0.00000006,0.00000007,0.00000
 010,-0.00000029,-0.00000007,-0.00000020,-0.00000043,-0.00000007,-0.000
 00017,-0.00000023,0.00000012,0.00000017,-0.00000056,0.00000020,0.00000
 031,-0.00000061,0.00000005,0.00000002,-0.00000063\\\@


 IBM COMPATIBILITY IS LIKE PREGNANCY. YOU ARE OR
 OR YOU ARE NOT. -- ADAM OSBORNE
 Job cpu time:       0 days  0 hours 51 minutes 34.6 seconds.
 Elapsed time:       0 days  0 hours  0 minutes 52.0 seconds.
 File lengths (MBytes):  RWF=    202 Int=      0 D2E=      0 Chk=      7 Scr=      2
 Normal termination of Gaussian 16 at Mon Aug  7 15:02:42 2023.
