 Entering Gaussian System, Link 0=g16
 Input=OH_AGC_opt_freq_6_31Gdp_re.com
 Output=OH_AGC_opt_freq_6_31Gdp_re.log
 Initial command:
 /opt/ohpc/pub/apps/gaussian/avx2/g16/l1.exe "/scratch/g16-tmp/Gau-3701178.inp" -scrdir="/scratch/g16-tmp/"
 Entering Link 1 = /opt/ohpc/pub/apps/gaussian/avx2/g16/l1.exe PID=   3701179.
  
 Copyright (c) 1988-2017, Gaussian, Inc.  All Rights Reserved.
  
 This is part of the Gaussian(R) 16 program.  It is based on
 the Gaussian(R) 09 system (copyright 2009, Gaussian, Inc.),
 the Gaussian(R) 03 system (copyright 2003, Gaussian, Inc.),
 the Gaussian(R) 98 system (copyright 1998, Gaussian, Inc.),
 the Gaussian(R) 94 system (copyright 1995, Gaussian, Inc.),
 the Gaussian 92(TM) system (copyright 1992, Gaussian, Inc.),
 the Gaussian 90(TM) system (copyright 1990, Gaussian, Inc.),
 the Gaussian 88(TM) system (copyright 1988, Gaussian, Inc.),
 the Gaussian 86(TM) system (copyright 1986, Carnegie Mellon
 University), and the Gaussian 82(TM) system (copyright 1983,
 Carnegie Mellon University). Gaussian is a federally registered
 trademark of Gaussian, Inc.
  
 This software contains proprietary and confidential information,
 including trade secrets, belonging to Gaussian, Inc.
  
 This software is provided under written license and may be
 used, copied, transmitted, or stored only in accord with that
 written license.
  
 The following legend is applicable only to US Government
 contracts under FAR:
  
                    RESTRICTED RIGHTS LEGEND
  
 Use, reproduction and disclosure by the US Government is
 subject to restrictions as set forth in subparagraphs (a)
 and (c) of the Commercial Computer Software - Restricted
 Rights clause in FAR 52.227-19.
  
 Gaussian, Inc.
 340 Quinnipiac St., Bldg. 40, Wallingford CT 06492
  
  
 ---------------------------------------------------------------
 Warning -- This program may not be used in any manner that
 competes with the business of Gaussian, Inc. or will provide
 assistance to any competitor of Gaussian, Inc.  The licensee
 of this program is prohibited from giving any competitor of
 Gaussian, Inc. access to this program.  By using this program,
 the user acknowledges that Gaussian, Inc. is engaged in the
 business of creating and licensing software in the field of
 computational chemistry and represents and warrants to the
 licensee that it is not a competitor of Gaussian, Inc. and that
 it will not use this program in any manner prohibited above.
 ---------------------------------------------------------------
  

 Cite this work as:
 Gaussian 16, Revision B.01,
 M. J. Frisch, G. W. Trucks, H. B. Schlegel, G. E. Scuseria, 
 M. A. Robb, J. R. Cheeseman, G. Scalmani, V. Barone, 
 G. A. Petersson, H. Nakatsuji, X. Li, M. Caricato, A. V. Marenich, 
 J. Bloino, B. G. Janesko, R. Gomperts, B. Mennucci, H. P. Hratchian, 
 J. V. Ortiz, A. F. Izmaylov, J. L. Sonnenberg, D. Williams-Young, 
 F. Ding, F. Lipparini, F. Egidi, J. Goings, B. Peng, A. Petrone, 
 T. Henderson, D. Ranasinghe, V. G. Zakrzewski, J. Gao, N. Rega, 
 G. Zheng, W. Liang, M. Hada, M. Ehara, K. Toyota, R. Fukuda, 
 J. Hasegawa, M. Ishida, T. Nakajima, Y. Honda, O. Kitao, H. Nakai, 
 T. Vreven, K. Throssell, J. A. Montgomery, Jr., J. E. Peralta, 
 F. Ogliaro, M. J. Bearpark, J. J. Heyd, E. N. Brothers, K. N. Kudin, 
 V. N. Staroverov, T. A. Keith, R. Kobayashi, J. Normand, 
 K. Raghavachari, A. P. Rendell, J. C. Burant, S. S. Iyengar, 
 J. Tomasi, M. Cossi, J. M. Millam, M. Klene, C. Adamo, R. Cammi, 
 J. W. Ochterski, R. L. Martin, K. Morokuma, O. Farkas, 
 J. B. Foresman, and D. J. Fox, Gaussian, Inc., Wallingford CT, 2016.
 
 ******************************************
 Gaussian 16:  ES64L-G16RevB.01 20-Dec-2017
                10-Oct-2023 
 ******************************************
 %nprocshared=64
 Will use up to   64 processors via shared memory.
 %mem=64GB
 %chk=OH_AGC_opt_freq_6_31Gdp_re.chk
 ----------------------------------------------------------------------
 # opt=(calcall,tight,cartesian) freq b3lyp/gen nosymm scf=(qc,maxcycle
 =1024) pseudo=read
 ----------------------------------------------------------------------
 1/7=10,10=4,18=10,26=3,38=1/1,3;
 2/12=2,15=1,17=6,18=5,29=2,40=1/2;
 3/5=7,11=2,16=1,17=8,25=1,30=1,71=2,74=-5,140=1/1,2,3;
 4//1;
 5/5=2,7=1024,8=3,38=5/8;
 8/6=4,10=90,11=11/1;
 11/6=1,8=1,9=11,15=111,16=1,31=1/1,2,10;
 10/6=1,31=1/2;
 6/7=2,8=2,9=2,10=2,18=1,28=1/1;
 7/7=1,10=1,25=1,30=1/1,2,3,16;
 1/7=10,10=4,18=10,26=3/3(3);
 2/15=1,29=1/2;
 7/7=1,8=1,9=1,25=1,30=1,44=-1/16;
 99/12=1/99;
 2/15=1,29=1/2;
 3/5=7,6=1,11=2,16=1,17=8,25=1,30=1,71=2,74=-5,82=7,140=1/1,2,3;
 4/5=5,16=3,69=1/1;
 5/5=2,7=1024,8=3,38=5/8;
 8/6=4,10=90,11=11/1;
 11/6=1,8=1,9=11,15=111,16=1,31=1/1,2,10;
 10/6=1,31=1/2;
 7/7=1,10=1,25=1,30=1/1,2,3,16;
 1/7=10,10=4,18=10,26=3/3(-8);
 2/15=1,29=1/2;
 6/7=2,8=2,9=2,10=2,18=1,19=2,28=1/1;
 7/7=1,8=1,9=1,25=1,30=1,44=-1/16;
 99/12=1/99;
 --------------------------
 OH_AGC_opt_freq_6_31Gdp_re
 --------------------------
 Symbolic Z-matrix:
 Charge =  0 Multiplicity = 1
 Zn                   0    -2.69939  -0.11394  -0.14051 
 O                    0    -1.14991  -1.20165  -1.0103 
 O                    0     0.79049   0.22657  -0.64817 
 O                    -1   -1.94049  -0.63788   1.72455 
 O                    -1   -0.37269   1.01087   1.91697 
 C                    -1   -1.06872   0.05737   2.35689 
 Zn                   0    -0.1876    1.89226  -0.08956 
 O                    -1   -1.63008   3.22081   0.54068 
 O                    -1   -3.34506   1.72518   0.7202 
 O                    -1   -1.08556   1.98476  -2.06075 
 O                    -1   -2.99376   0.73733  -2.01137 
 C                    -1   -2.81579   2.87056   0.84076 
 C                    -1   -2.15087   1.52281  -2.5591 
 H                    -1   -0.90808  -0.23463   3.41991 
 H                    -1   -3.46664   3.66873   1.26094 
 H                    -1   -2.38928   1.83636  -3.59889 
 C                    -1    2.59139   2.8597   -0.55114 
 C                    -1    3.70861   3.70782  -0.53735 
 C                    -1    3.56604   5.00673  -0.02115 
 C                    -1    2.30987   5.41502   0.45914 
 C                    -1    1.24091   4.5082    0.4104 
 N                    -1    1.38395   3.25577  -0.08258 
 H                    -1    4.41909   5.6904    0.00577 
 H                    -1    2.63016   1.83613  -0.93464 
 H                    -1    4.66543   3.35003  -0.92345 
 H                    -1    2.15477   6.41643   0.86647 
 H                    -1    0.23924   4.76357   0.76449 
 C                    -1   -4.7348   -1.98934   1.01851 
 C                    -1   -5.89393  -2.77545   1.08885 
 C                    -1   -6.7547   -2.81324  -0.02128 
 C                    -1   -6.42657  -2.06253  -1.16273 
 C                    -1   -5.2498   -1.29945  -1.15551 
 N                    -1   -4.42128  -1.26805  -0.08421 
 H                    -1   -7.66587  -3.41713   0.0031 
 H                    -1   -4.0254   -1.91717   1.84682 
 H                    -1   -6.11102  -3.34226   1.99667 
 H                    -1   -7.0675   -2.06191  -2.04688 
 H                    -1   -4.94024  -0.69138  -2.00924 
 H                    0    -0.19783  -0.63907  -0.90531 
 H                    0     1.39958  -0.14384   0.01937 
 H                    0    -1.03313  -2.14649  -0.81315 
 C                    0    -0.91028   2.61523  -7.77363 
 C                    0    -0.81701   1.93133  -6.6285 
 C                    0     0.19306   2.20716  -5.55743 
 O                    0     0.84872   0.94285  -5.21913 
 C                    0     1.68969   1.02999  -4.03673 
 C                    0     2.26518  -0.36195  -3.86095 
 C                    0     1.21529  -1.44058  -3.50801 
 O                    0     3.16693  -0.35127  -2.68457 
 H                    0    -1.68032   2.40126  -8.50821 
 H                    0    -0.21994   3.41872  -8.01976 
 H                    0    -1.51086   1.12177  -6.40834 
 H                    0    -0.28752   2.60504  -4.65068 
 H                    0     0.9416    2.93938  -5.89593 
 H                    0     1.10024   1.30993  -3.15699 
 H                    0     2.49948   1.75891  -4.18455 
 H                    0     2.86769  -0.64213  -4.72809 
 H                    0     1.07288  -2.18002  -4.29348 
 H                    0     0.26246  -1.01986  -3.18839 
 C                    0     2.8314   -1.37893  -1.81155 
 O                    0     3.38767  -1.58967  -0.74779 
 O                    0     1.80638  -2.13802  -2.33982 
 

 GradGradGradGradGradGradGradGradGradGradGradGradGradGradGradGradGradGrad
 Berny optimization.
 Initialization pass.
 No Z-matrix variables, so optimization will use Cartesian coordinates.
 Trust Radius=3.00D-01 FncErr=1.00D-07 GrdErr=1.00D-06 EigMax=2.50D+02 EigMin=1.00D-04
 Number of steps in this run=    196 maximum allowed number of steps=    372.
 GradGradGradGradGradGradGradGradGradGradGradGradGradGradGradGradGradGrad

 Symmetry turned off by external request.
 Stoichiometry    C20H26N2O12Zn2
 Framework group  C1[X(C20H26N2O12Zn2)]
 Deg. of freedom   180
 Full point group                 C1      NOp   1
                          Input orientation:                          
 ---------------------------------------------------------------------
 Center     Atomic      Atomic             Coordinates (Angstroms)
 Number     Number       Type             X           Y           Z
 ---------------------------------------------------------------------
      1         30           0       -2.699389   -0.113938   -0.140513
      2          8           0       -1.149912   -1.201646   -1.010298
      3          8           0        0.790489    0.226568   -0.648172
      4          8           0       -1.940493   -0.637880    1.724552
      5          8           0       -0.372693    1.010875    1.916972
      6          6           0       -1.068724    0.057367    2.356892
      7         30           0       -0.187595    1.892260   -0.089562
      8          8           0       -1.630079    3.220806    0.540676
      9          8           0       -3.345064    1.725183    0.720202
     10          8           0       -1.085559    1.984761   -2.060749
     11          8           0       -2.993756    0.737325   -2.011366
     12          6           0       -2.815788    2.870560    0.840756
     13          6           0       -2.150867    1.522812   -2.559095
     14          1           0       -0.908079   -0.234626    3.419908
     15          1           0       -3.466636    3.668730    1.260937
     16          1           0       -2.389282    1.836355   -3.598888
     17          6           0        2.591387    2.859704   -0.551135
     18          6           0        3.708612    3.707815   -0.537348
     19          6           0        3.566043    5.006726   -0.021154
     20          6           0        2.309865    5.415023    0.459138
     21          6           0        1.240906    4.508199    0.410399
     22          7           0        1.383948    3.255771   -0.082584
     23          1           0        4.419088    5.690402    0.005770
     24          1           0        2.630158    1.836132   -0.934636
     25          1           0        4.665434    3.350028   -0.923448
     26          1           0        2.154774    6.416431    0.866473
     27          1           0        0.239236    4.763568    0.764493
     28          6           0       -4.734795   -1.989342    1.018511
     29          6           0       -5.893934   -2.775449    1.088845
     30          6           0       -6.754703   -2.813244   -0.021280
     31          6           0       -6.426568   -2.062530   -1.162730
     32          6           0       -5.249797   -1.299450   -1.155511
     33          7           0       -4.421278   -1.268045   -0.084209
     34          1           0       -7.665873   -3.417132    0.003100
     35          1           0       -4.025399   -1.917166    1.846823
     36          1           0       -6.111019   -3.342262    1.996669
     37          1           0       -7.067496   -2.061912   -2.046875
     38          1           0       -4.940236   -0.691384   -2.009240
     39          1           0       -0.197827   -0.639066   -0.905307
     40          1           0        1.399583   -0.143844    0.019369
     41          1           0       -1.033125   -2.146494   -0.813153
     42          6           0       -0.910275    2.615232   -7.773630
     43          6           0       -0.817013    1.931329   -6.628499
     44          6           0        0.193056    2.207156   -5.557426
     45          8           0        0.848721    0.942850   -5.219126
     46          6           0        1.689694    1.029992   -4.036727
     47          6           0        2.265183   -0.361950   -3.860952
     48          6           0        1.215292   -1.440579   -3.508011
     49          8           0        3.166926   -0.351270   -2.684567
     50          1           0       -1.680322    2.401258   -8.508212
     51          1           0       -0.219939    3.418715   -8.019763
     52          1           0       -1.510861    1.121767   -6.408339
     53          1           0       -0.287523    2.605043   -4.650684
     54          1           0        0.941600    2.939383   -5.895926
     55          1           0        1.100244    1.309930   -3.156989
     56          1           0        2.499476    1.758906   -4.184551
     57          1           0        2.867687   -0.642134   -4.728088
     58          1           0        1.072884   -2.180015   -4.293482
     59          1           0        0.262455   -1.019856   -3.188389
     60          6           0        2.831396   -1.378929   -1.811551
     61          8           0        3.387669   -1.589671   -0.747794
     62          8           0        1.806379   -2.138020   -2.339816
 ---------------------------------------------------------------------
 Rotational constants (GHZ):           0.1127676           0.0697653           0.0600365
 General basis read from cards:  (5D, 7F)
 ======================================================================================================
                                       Pseudopotential Parameters
 ======================================================================================================
  Center     Atomic      Valence      Angular      Power
  Number     Number     Electrons     Momentum     of R      Exponent        Coefficient   SO-Coeffient
 ======================================================================================================
    1         30           12
                                      F and up 
                                                     1      386.7379660      -18.00000000    0.00000000
                                                     2       72.8587359     -124.35274030    0.00000000
                                                     2       15.9066170      -30.66018220    0.00000000
                                                     2        4.3502340      -10.63589890    0.00000000
                                                     2        1.2842199       -0.76836230    0.00000000
                                      S - F
                                                     0       19.0867858        3.00000000    0.00000000
                                                     1        5.0231080       22.52342250    0.00000000
                                                     2        1.2701744       48.44659420    0.00000000
                                                     2        1.0671287      -44.55601190    0.00000000
                                                     2        0.9264190       12.99839580    0.00000000
                                      P - F
                                                     0       43.4927750        5.00000000    0.00000000
                                                     1       20.8692669       20.74355890    0.00000000
                                                     2       21.7118378       90.30271580    0.00000000
                                                     2        6.3616915       74.66103160    0.00000000
                                                     2        1.2291195        9.88944240    0.00000000
                                      D - F
                                                     2       13.5851800       -4.84903590    0.00000000
                                                     2        9.8373050        3.69133790    0.00000000
                                                     2        0.8373113       -0.50373190    0.00000000
    2          8
                                   No pseudopotential on this center.
    3          8
                                   No pseudopotential on this center.
    4          8
                                   No pseudopotential on this center.
    5          8
                                   No pseudopotential on this center.
    6          6
                                   No pseudopotential on this center.
    7         30           12
                                      F and up 
                                                     1      386.7379660      -18.00000000    0.00000000
                                                     2       72.8587359     -124.35274030    0.00000000
                                                     2       15.9066170      -30.66018220    0.00000000
                                                     2        4.3502340      -10.63589890    0.00000000
                                                     2        1.2842199       -0.76836230    0.00000000
                                      S - F
                                                     0       19.0867858        3.00000000    0.00000000
                                                     1        5.0231080       22.52342250    0.00000000
                                                     2        1.2701744       48.44659420    0.00000000
                                                     2        1.0671287      -44.55601190    0.00000000
                                                     2        0.9264190       12.99839580    0.00000000
                                      P - F
                                                     0       43.4927750        5.00000000    0.00000000
                                                     1       20.8692669       20.74355890    0.00000000
                                                     2       21.7118378       90.30271580    0.00000000
                                                     2        6.3616915       74.66103160    0.00000000
                                                     2        1.2291195        9.88944240    0.00000000
                                      D - F
                                                     2       13.5851800       -4.84903590    0.00000000
                                                     2        9.8373050        3.69133790    0.00000000
                                                     2        0.8373113       -0.50373190    0.00000000
    8          8
                                   No pseudopotential on this center.
    9          8
                                   No pseudopotential on this center.
   10          8
                                   No pseudopotential on this center.
   11          8
                                   No pseudopotential on this center.
   12          6
                                   No pseudopotential on this center.
   13          6
                                   No pseudopotential on this center.
   14          1
                                   No pseudopotential on this center.
   15          1
                                   No pseudopotential on this center.
   16          1
                                   No pseudopotential on this center.
   17          6
                                   No pseudopotential on this center.
   18          6
                                   No pseudopotential on this center.
   19          6
                                   No pseudopotential on this center.
   20          6
                                   No pseudopotential on this center.
   21          6
                                   No pseudopotential on this center.
   22          7
                                   No pseudopotential on this center.
   23          1
                                   No pseudopotential on this center.
   24          1
                                   No pseudopotential on this center.
   25          1
                                   No pseudopotential on this center.
   26          1
                                   No pseudopotential on this center.
   27          1
                                   No pseudopotential on this center.
   28          6
                                   No pseudopotential on this center.
   29          6
                                   No pseudopotential on this center.
   30          6
                                   No pseudopotential on this center.
   31          6
                                   No pseudopotential on this center.
   32          6
                                   No pseudopotential on this center.
   33          7
                                   No pseudopotential on this center.
   34          1
                                   No pseudopotential on this center.
   35          1
                                   No pseudopotential on this center.
   36          1
                                   No pseudopotential on this center.
   37          1
                                   No pseudopotential on this center.
   38          1
                                   No pseudopotential on this center.
   39          1
                                   No pseudopotential on this center.
   40          1
                                   No pseudopotential on this center.
   41          1
                                   No pseudopotential on this center.
   42          6
                                   No pseudopotential on this center.
   43          6
                                   No pseudopotential on this center.
   44          6
                                   No pseudopotential on this center.
   45          8
                                   No pseudopotential on this center.
   46          6
                                   No pseudopotential on this center.
   47          6
                                   No pseudopotential on this center.
   48          6
                                   No pseudopotential on this center.
   49          8
                                   No pseudopotential on this center.
   50          1
                                   No pseudopotential on this center.
   51          1
                                   No pseudopotential on this center.
   52          1
                                   No pseudopotential on this center.
   53          1
                                   No pseudopotential on this center.
   54          1
                                   No pseudopotential on this center.
   55          1
                                   No pseudopotential on this center.
   56          1
                                   No pseudopotential on this center.
   57          1
                                   No pseudopotential on this center.
   58          1
                                   No pseudopotential on this center.
   59          1
                                   No pseudopotential on this center.
   60          6
                                   No pseudopotential on this center.
   61          8
                                   No pseudopotential on this center.
   62          8
                                   No pseudopotential on this center.
 ======================================================================================================
   778 basis functions,  1348 primitive gaussians,   816 cartesian basis functions
   140 alpha electrons      140 beta electrons
       nuclear repulsion energy      4534.7900465021 Hartrees.
 NAtoms=   62 NActive=   62 NUniq=   62 SFac= 1.00D+00 NAtFMM=   60 NAOKFM=T Big=T
 Integral buffers will be    131072 words long.
 Raffenetti 2 integral format.
 Two-electron integral symmetry is turned off.
 One-electron integrals computed using PRISM.
   1 Symmetry operations used in ECPInt.
 ECPInt:  NShTT=   33930 NPrTT=  156665 LenC2=   26990 LenP2D=   72841.
 LDataN:  DoStor=T MaxTD1= 5 Len=  102
 NBasis=   778 RedAO= T EigKep=  5.29D-06  NBF=   778
 NBsUse=   778 1.00D-06 EigRej= -1.00D+00 NBFU=   778
 ExpMin= 3.51D-02 ExpMax= 5.48D+03 ExpMxC= 8.25D+02 IAcc=3 IRadAn=         5 AccDes= 0.00D+00
 Harris functional with IExCor=  402 and IRadAn=       5 diagonalized for initial guess.
 HarFok:  IExCor=  402 AccDes= 0.00D+00 IRadAn=         5 IDoV= 1 UseB2=F ITyADJ=14
 ICtDFT=  3500011 ScaDFX=  1.000000  1.000000  1.000000  1.000000
 FoFCou: FMM=F IPFlag=           0 FMFlag=      100000 FMFlg1=        2001
         NFxFlg=           0 DoJE=T BraDBF=F KetDBF=T FulRan=T
         wScrn=  0.000000 ICntrl=       500 IOpCl=  0 I1Cent=   200000004 NGrid=           0
         NMat0=    1 NMatS0=      1 NMatT0=    0 NMatD0=    1 NMtDS0=    0 NMtDT0=    0
 Symmetry not used in FoFCou.
 Gradient too large for Newton-Raphson -- use scaled steepest descent instead.
     Accept linear search using points  2 and  3.
 Gradient too large for Newton-Raphson -- use scaled steepest descent instead.
     Accept linear search using points  2 and  3.
 Gradient too large for Newton-Raphson -- use scaled steepest descent instead.
 Gradient too large for Newton-Raphson -- use scaled steepest descent instead.
     Accept linear search using points  1 and  2.
 Gradient too large for Newton-Raphson -- use scaled steepest descent instead.
 LinEq1:  Iter=  0 NonCon=     1 RMS=2.11D-05 Max=9.89D-04 NDo=     1
 AX will form     1 AO Fock derivatives at one time.
 LinEq1:  Iter=  1 NonCon=     1 RMS=2.05D-05 Max=1.24D-03 NDo=     1
 LinEq1:  Iter=  2 NonCon=     1 RMS=1.25D-05 Max=5.12D-04 NDo=     1
 LinEq1:  Iter=  3 NonCon=     1 RMS=7.65D-06 Max=2.33D-04 NDo=     1
 LinEq1:  Iter=  4 NonCon=     1 RMS=6.30D-06 Max=3.54D-04 NDo=     1
 LinEq1:  Iter=  5 NonCon=     1 RMS=2.98D-06 Max=1.28D-04 NDo=     1
 LinEq1:  Iter=  6 NonCon=     1 RMS=1.98D-06 Max=7.15D-05 NDo=     1
 LinEq1:  Iter=  7 NonCon=     1 RMS=9.99D-07 Max=4.67D-05 NDo=     1
 LinEq1:  Iter=  8 NonCon=     1 RMS=7.79D-07 Max=4.62D-05 NDo=     1
 LinEq1:  Iter=  9 NonCon=     1 RMS=4.96D-07 Max=2.29D-05 NDo=     1
 LinEq1:  Iter= 10 NonCon=     1 RMS=3.60D-07 Max=1.86D-05 NDo=     1
 LinEq1:  Iter= 11 NonCon=     1 RMS=2.02D-07 Max=1.41D-05 NDo=     1
 LinEq1:  Iter= 12 NonCon=     1 RMS=1.30D-07 Max=7.64D-06 NDo=     1
 LinEq1:  Iter= 13 NonCon=     1 RMS=8.22D-08 Max=5.20D-06 NDo=     1
 LinEq1:  Iter= 14 NonCon=     1 RMS=5.72D-08 Max=2.58D-06 NDo=     1
 LinEq1:  Iter= 15 NonCon=     1 RMS=4.08D-08 Max=1.40D-06 NDo=     1
 LinEq1:  Iter= 16 NonCon=     1 RMS=2.72D-08 Max=1.59D-06 NDo=     1
 LinEq1:  Iter= 17 NonCon=     1 RMS=2.21D-08 Max=1.31D-06 NDo=     1
 LinEq1:  Iter= 18 NonCon=     1 RMS=1.01D-08 Max=4.86D-07 NDo=     1
 LinEq1:  Iter= 19 NonCon=     1 RMS=6.25D-09 Max=4.61D-07 NDo=     1
 LinEq1:  Iter= 20 NonCon=     0 RMS=4.05D-09 Max=2.58D-07 NDo=     1
 Linear equations converged to 4.227D-08 4.227D-07 after    20 iterations.
     Accept linear search using points  1 and  2.
     Minimum is close to point  2 DX= -1.01D-04 DF= -2.27D-13 DXR=  1.01D-04 DFR=  8.34D-09 which will be used.
 SCF Done:  E(RB3LYP) =  -1921.48835340     a.u. after    7 cycles
            Convg  =    0.3806D-05                    37 Fock formations.
              S**2 =  0.0000                  -V/T =  1.9574
 DoSCS=F DFT=T ScalE2(SS,OS)=  1.000000  1.000000
 Range of M.O.s used for correlation:     1   778
 NBasis=   778 NAE=   140 NBE=   140 NFC=     0 NFV=     0
 NROrb=    778 NOA=   140 NOB=   140 NVA=   638 NVB=   638

 **** Warning!!: The largest alpha MO coefficient is  0.59002735D+02

   1 Symmetry operations used in ECPInt.
 ECPInt:  NShTT=   33930 NPrTT=  156665 LenC2=   26990 LenP2D=   72841.
 LDataN:  DoStor=T MaxTD1= 6 Len=  172
 Number of processors reduced to  11 by ecpmxn.
 Symmetrizing basis deriv contribution to polar:
 IMax=3 JMax=2 DiffMx= 0.00D+00
 G2DrvN: will do    63 centers at a time, making    1 passes.
 Calling FoFCou, ICntrl=  3107 FMM=T I1Cent=   0 AccDes= 0.00D+00.
 End of G2Drv F.D. properties file   721 does not exist.
 End of G2Drv F.D. properties file   722 does not exist.
 End of G2Drv F.D. properties file   788 does not exist.
          IDoAtm=11100010000000000000000000000000000000111111111111
          IDoAtm=111111111111
          Differentiating once with respect to electric field.
                with respect to dipole field.
          Differentiating once with respect to nuclear coordinates.
 CalDSu exits because no D1Ps are significant.
          There are    87 degrees of freedom in the 1st order CPHF.  IDoFFX=6 NUNeed=     3.
     87 vectors produced by pass  0 Test12= 1.03D-13 1.15D-09 XBig12= 3.01D+02 5.18D+00.
 AX will form    87 AO Fock derivatives at one time.
     87 vectors produced by pass  1 Test12= 1.03D-13 1.15D-09 XBig12= 1.31D+02 3.37D+00.
     87 vectors produced by pass  2 Test12= 1.03D-13 1.15D-09 XBig12= 1.37D+01 4.65D-01.
     87 vectors produced by pass  3 Test12= 1.03D-13 1.15D-09 XBig12= 4.20D-01 8.73D-02.
     87 vectors produced by pass  4 Test12= 1.03D-13 1.15D-09 XBig12= 6.49D-03 1.18D-02.
     87 vectors produced by pass  5 Test12= 1.03D-13 1.15D-09 XBig12= 8.06D-05 2.76D-03.
     56 vectors produced by pass  6 Test12= 1.03D-13 1.15D-09 XBig12= 6.05D-07 2.43D-04.
     16 vectors produced by pass  7 Test12= 1.03D-13 1.15D-09 XBig12= 2.93D-09 6.85D-06.
      6 vectors produced by pass  8 Test12= 1.03D-13 1.15D-09 XBig12= 1.33D-11 3.44D-07.
      3 vectors produced by pass  9 Test12= 1.03D-13 1.15D-09 XBig12= 5.24D-14 2.23D-08.
      2 vectors produced by pass 10 Test12= 1.03D-13 1.15D-09 XBig12= 2.22D-16 1.58D-09.
 InvSVY:  IOpt=1 It=  1 EMax= 1.07D-14
 Solved reduced A of dimension   605 with    87 vectors.
 Isotropic polarizability for W=    0.000000      330.75 Bohr**3.
 End of Minotr F.D. properties file   721 does not exist.
 End of Minotr F.D. properties file   722 does not exist.
 End of Minotr F.D. properties file   788 does not exist.

 **********************************************************************

            Population analysis using the SCF Density.

 **********************************************************************

 Alpha  occ. eigenvalues --  -19.19946 -19.19705 -19.16044 -19.14009 -19.13292
 Alpha  occ. eigenvalues --  -19.13134 -19.12886 -19.12671 -19.12466 -19.12289
 Alpha  occ. eigenvalues --  -19.12234 -19.09752 -14.38970 -14.38397 -10.36269
 Alpha  occ. eigenvalues --  -10.29888 -10.29441 -10.28963 -10.26193 -10.25934
 Alpha  occ. eigenvalues --  -10.25927 -10.25406 -10.25246 -10.24975 -10.24418
 Alpha  occ. eigenvalues --  -10.23918 -10.23893 -10.23610 -10.23244 -10.23238
 Alpha  occ. eigenvalues --  -10.22749 -10.22637 -10.19836 -10.19075  -1.12957
 Alpha  occ. eigenvalues --   -1.05442  -1.04912  -1.04243  -1.02952  -1.02405
 Alpha  occ. eigenvalues --   -1.02192  -0.98176  -0.97650  -0.97530  -0.97158
 Alpha  occ. eigenvalues --   -0.96694  -0.96072  -0.92297  -0.83659  -0.83114
 Alpha  occ. eigenvalues --   -0.80648  -0.79532  -0.78961  -0.77970  -0.70906
 Alpha  occ. eigenvalues --   -0.66999  -0.66638  -0.66116  -0.66092  -0.65532
 Alpha  occ. eigenvalues --   -0.61980  -0.61284  -0.60489  -0.59578  -0.59452
 Alpha  occ. eigenvalues --   -0.59364  -0.59075  -0.58911  -0.58425  -0.58267
 Alpha  occ. eigenvalues --   -0.58260  -0.58115  -0.57976  -0.56918  -0.56857
 Alpha  occ. eigenvalues --   -0.55787  -0.55110  -0.54694  -0.53108  -0.51338
 Alpha  occ. eigenvalues --   -0.51286  -0.50770  -0.49985  -0.49874  -0.49533
 Alpha  occ. eigenvalues --   -0.49368  -0.48310  -0.48097  -0.47561  -0.47221
 Alpha  occ. eigenvalues --   -0.46884  -0.46430  -0.46102  -0.45860  -0.45350
 Alpha  occ. eigenvalues --   -0.45006  -0.44149  -0.43753  -0.43584  -0.43262
 Alpha  occ. eigenvalues --   -0.43161  -0.42782  -0.42715  -0.42490  -0.41993
 Alpha  occ. eigenvalues --   -0.41681  -0.40941  -0.40617  -0.39644  -0.39455
 Alpha  occ. eigenvalues --   -0.39084  -0.39002  -0.38638  -0.37266  -0.36774
 Alpha  occ. eigenvalues --   -0.35427  -0.34081  -0.33514  -0.33256  -0.32561
 Alpha  occ. eigenvalues --   -0.32053  -0.31617  -0.30462  -0.30335  -0.29987
 Alpha  occ. eigenvalues --   -0.29691  -0.29499  -0.29316  -0.29207  -0.28998
 Alpha  occ. eigenvalues --   -0.28672  -0.28025  -0.27822  -0.27668  -0.27337
 Alpha  occ. eigenvalues --   -0.27069  -0.26609  -0.26194  -0.25949  -0.25189
 Alpha virt. eigenvalues --   -0.07292  -0.06768  -0.05073  -0.04560  -0.01329
 Alpha virt. eigenvalues --   -0.00919  -0.00500   0.00491   0.00888   0.00983
 Alpha virt. eigenvalues --    0.01234   0.01476   0.01886   0.02001   0.02245
 Alpha virt. eigenvalues --    0.02306   0.02548   0.02802   0.02965   0.03214
 Alpha virt. eigenvalues --    0.03452   0.03536   0.03988   0.04181   0.04611
 Alpha virt. eigenvalues --    0.04792   0.05144   0.05286   0.05589   0.06076
 Alpha virt. eigenvalues --    0.06322   0.06564   0.06757   0.07237   0.07452
 Alpha virt. eigenvalues --    0.07659   0.07861   0.08076   0.08331   0.08686
 Alpha virt. eigenvalues --    0.08836   0.09064   0.09312   0.09400   0.09497
 Alpha virt. eigenvalues --    0.09672   0.09906   0.10167   0.10380   0.11023
 Alpha virt. eigenvalues --    0.11157   0.11573   0.11614   0.11865   0.12128
 Alpha virt. eigenvalues --    0.12434   0.12586   0.12743   0.12843   0.13211
 Alpha virt. eigenvalues --    0.13454   0.13511   0.13741   0.14232   0.14481
 Alpha virt. eigenvalues --    0.15102   0.15350   0.15486   0.15862   0.15993
 Alpha virt. eigenvalues --    0.16104   0.16128   0.16366   0.16479   0.16913
 Alpha virt. eigenvalues --    0.17023   0.17254   0.17359   0.17601   0.17729
 Alpha virt. eigenvalues --    0.17895   0.18136   0.18463   0.18565   0.18885
 Alpha virt. eigenvalues --    0.18982   0.19192   0.19492   0.19724   0.20051
 Alpha virt. eigenvalues --    0.20175   0.20310   0.20800   0.20924   0.21132
 Alpha virt. eigenvalues --    0.21340   0.21519   0.21876   0.22200   0.22263
 Alpha virt. eigenvalues --    0.22596   0.22785   0.23030   0.23281   0.23457
 Alpha virt. eigenvalues --    0.23567   0.23770   0.23945   0.24154   0.24448
 Alpha virt. eigenvalues --    0.24830   0.24898   0.25208   0.25485   0.25564
 Alpha virt. eigenvalues --    0.25771   0.26077   0.26131   0.26292   0.26798
 Alpha virt. eigenvalues --    0.26815   0.26956   0.27044   0.27428   0.27777
 Alpha virt. eigenvalues --    0.28076   0.28504   0.28553   0.28828   0.28999
 Alpha virt. eigenvalues --    0.29287   0.29930   0.30084   0.30408   0.30612
 Alpha virt. eigenvalues --    0.30812   0.30914   0.31035   0.31270   0.31748
 Alpha virt. eigenvalues --    0.31937   0.32220   0.32308   0.32504   0.32814
 Alpha virt. eigenvalues --    0.32908   0.33250   0.33677   0.33701   0.34003
 Alpha virt. eigenvalues --    0.34290   0.34913   0.35170   0.35504   0.35649
 Alpha virt. eigenvalues --    0.35866   0.36285   0.36400   0.36577   0.36984
 Alpha virt. eigenvalues --    0.37357   0.37794   0.38064   0.38215   0.38414
 Alpha virt. eigenvalues --    0.38453   0.38858   0.39151   0.39392   0.39760
 Alpha virt. eigenvalues --    0.39992   0.40338   0.40453   0.40839   0.41110
 Alpha virt. eigenvalues --    0.41267   0.41553   0.41960   0.42433   0.42774
 Alpha virt. eigenvalues --    0.43301   0.43649   0.43802   0.44404   0.44779
 Alpha virt. eigenvalues --    0.44942   0.45512   0.46127   0.46757   0.47043
 Alpha virt. eigenvalues --    0.47071   0.47498   0.47914   0.48221   0.48822
 Alpha virt. eigenvalues --    0.49558   0.49876   0.50295   0.51067   0.51713
 Alpha virt. eigenvalues --    0.52140   0.52444   0.52918   0.53652   0.53715
 Alpha virt. eigenvalues --    0.54592   0.54664   0.55457   0.55906   0.56703
 Alpha virt. eigenvalues --    0.57241   0.57973   0.58917   0.60223   0.61189
 Alpha virt. eigenvalues --    0.64888   0.65401   0.66454   0.66903   0.67015
 Alpha virt. eigenvalues --    0.67593   0.68435   0.68807   0.69190   0.69888
 Alpha virt. eigenvalues --    0.70374   0.70694   0.71157   0.71369   0.71503
 Alpha virt. eigenvalues --    0.72231   0.72500   0.72629   0.73071   0.73479
 Alpha virt. eigenvalues --    0.73652   0.74283   0.75058   0.76952   0.77128
 Alpha virt. eigenvalues --    0.78140   0.78583   0.79601   0.80108   0.80764
 Alpha virt. eigenvalues --    0.81636   0.81900   0.82671   0.83131   0.84669
 Alpha virt. eigenvalues --    0.85143   0.85632   0.85880   0.86550   0.86953
 Alpha virt. eigenvalues --    0.87661   0.88626   0.89265   0.89318   0.90013
 Alpha virt. eigenvalues --    0.90221   0.90723   0.90888   0.91119   0.91400
 Alpha virt. eigenvalues --    0.92478   0.92807   0.93528   0.94301   0.94534
 Alpha virt. eigenvalues --    0.95191   0.95791   0.96384   0.97722   0.98591
 Alpha virt. eigenvalues --    0.99048   0.99582   0.99972   1.00148   1.01303
 Alpha virt. eigenvalues --    1.01702   1.02290   1.03014   1.03640   1.04263
 Alpha virt. eigenvalues --    1.04582   1.04752   1.05007   1.06211   1.06424
 Alpha virt. eigenvalues --    1.06613   1.07919   1.08796   1.09094   1.10969
 Alpha virt. eigenvalues --    1.11285   1.11892   1.12946   1.13755   1.13827
 Alpha virt. eigenvalues --    1.14485   1.15159   1.15353   1.16080   1.16526
 Alpha virt. eigenvalues --    1.16844   1.17864   1.18099   1.18393   1.18627
 Alpha virt. eigenvalues --    1.18944   1.19472   1.19870   1.20422   1.21032
 Alpha virt. eigenvalues --    1.21558   1.22475   1.23451   1.23623   1.24430
 Alpha virt. eigenvalues --    1.24948   1.25395   1.25690   1.26891   1.27166
 Alpha virt. eigenvalues --    1.27415   1.28651   1.28800   1.28865   1.29846
 Alpha virt. eigenvalues --    1.30203   1.30679   1.30951   1.31720   1.32911
 Alpha virt. eigenvalues --    1.33511   1.33963   1.34100   1.34665   1.35457
 Alpha virt. eigenvalues --    1.35591   1.36115   1.36271   1.36972   1.37192
 Alpha virt. eigenvalues --    1.37496   1.37832   1.38264   1.38960   1.39174
 Alpha virt. eigenvalues --    1.39415   1.39746   1.40014   1.40508   1.41056
 Alpha virt. eigenvalues --    1.41720   1.42232   1.43263   1.43689   1.43862
 Alpha virt. eigenvalues --    1.44089   1.44484   1.45097   1.45282   1.46127
 Alpha virt. eigenvalues --    1.47190   1.47410   1.48025   1.48427   1.48676
 Alpha virt. eigenvalues --    1.49926   1.50402   1.50827   1.51231   1.52540
 Alpha virt. eigenvalues --    1.53746   1.54109   1.55273   1.55552   1.57241
 Alpha virt. eigenvalues --    1.57570   1.58264   1.59191   1.59383   1.60439
 Alpha virt. eigenvalues --    1.60603   1.61601   1.61769   1.62437   1.63046
 Alpha virt. eigenvalues --    1.63379   1.63763   1.64333   1.65568   1.66433
 Alpha virt. eigenvalues --    1.66708   1.68777   1.69568   1.70578   1.71275
 Alpha virt. eigenvalues --    1.72110   1.72606   1.74746   1.74864   1.75901
 Alpha virt. eigenvalues --    1.76884   1.77655   1.77992   1.79388   1.79593
 Alpha virt. eigenvalues --    1.79878   1.80067   1.81098   1.81733   1.82043
 Alpha virt. eigenvalues --    1.82430   1.82843   1.83402   1.83935   1.84371
 Alpha virt. eigenvalues --    1.84986   1.85399   1.85655   1.86052   1.86799
 Alpha virt. eigenvalues --    1.87652   1.87983   1.89005   1.89872   1.89975
 Alpha virt. eigenvalues --    1.90802   1.91184   1.91891   1.92382   1.92558
 Alpha virt. eigenvalues --    1.92638   1.92708   1.93124   1.93657   1.93957
 Alpha virt. eigenvalues --    1.94141   1.94658   1.94990   1.95206   1.95762
 Alpha virt. eigenvalues --    1.96316   1.96452   1.96653   1.97017   1.97359
 Alpha virt. eigenvalues --    1.97566   1.97682   1.98110   1.98664   1.98992
 Alpha virt. eigenvalues --    1.99913   2.00259   2.00595   2.01143   2.01733
 Alpha virt. eigenvalues --    2.01887   2.02473   2.03133   2.03747   2.04302
 Alpha virt. eigenvalues --    2.04692   2.05387   2.06103   2.07044   2.08695
 Alpha virt. eigenvalues --    2.09485   2.09876   2.10673   2.11364   2.11581
 Alpha virt. eigenvalues --    2.12064   2.12364   2.13190   2.13581   2.15074
 Alpha virt. eigenvalues --    2.15996   2.16022   2.18070   2.19444   2.20301
 Alpha virt. eigenvalues --    2.20557   2.21187   2.21669   2.22885   2.24870
 Alpha virt. eigenvalues --    2.25137   2.25849   2.26058   2.26389   2.26720
 Alpha virt. eigenvalues --    2.27363   2.27598   2.27986   2.28396   2.28870
 Alpha virt. eigenvalues --    2.29070   2.30690   2.32267   2.32738   2.33734
 Alpha virt. eigenvalues --    2.34227   2.34314   2.34524   2.34965   2.35012
 Alpha virt. eigenvalues --    2.35564   2.36942   2.37300   2.37777   2.38729
 Alpha virt. eigenvalues --    2.39089   2.40271   2.42776   2.44342   2.45265
 Alpha virt. eigenvalues --    2.45650   2.47163   2.47800   2.47933   2.48157
 Alpha virt. eigenvalues --    2.49486   2.50486   2.50643   2.51130   2.51441
 Alpha virt. eigenvalues --    2.51860   2.52294   2.52832   2.53411   2.54118
 Alpha virt. eigenvalues --    2.54345   2.55248   2.56155   2.56521   2.56938
 Alpha virt. eigenvalues --    2.57250   2.57455   2.58717   2.59557   2.60512
 Alpha virt. eigenvalues --    2.63008   2.63232   2.63738   2.64139   2.65152
 Alpha virt. eigenvalues --    2.66020   2.67361   2.67893   2.68457   2.68913
 Alpha virt. eigenvalues --    2.69243   2.69269   2.69738   2.69868   2.70124
 Alpha virt. eigenvalues --    2.70766   2.70883   2.71765   2.71901   2.72982
 Alpha virt. eigenvalues --    2.74443   2.74916   2.75037   2.76257   2.77450
 Alpha virt. eigenvalues --    2.77932   2.80093   2.80432   2.80524   2.81647
 Alpha virt. eigenvalues --    2.82477   2.83275   2.84533   2.85738   2.85961
 Alpha virt. eigenvalues --    2.86822   2.89546   2.93000   2.94868   2.95930
 Alpha virt. eigenvalues --    2.96692   2.97920   2.99093   2.99989   3.00728
 Alpha virt. eigenvalues --    3.01059   3.02563   3.02803   3.03352   3.04471
 Alpha virt. eigenvalues --    3.05197   3.05545   3.05637   3.06825   3.09532
 Alpha virt. eigenvalues --    3.11794   3.15617   3.16022   3.17434   3.21427
 Alpha virt. eigenvalues --    3.22006   3.22712   3.23161   3.23792   3.23963
 Alpha virt. eigenvalues --    3.25196   3.26076   3.27814   3.27987   3.28809
 Alpha virt. eigenvalues --    3.33372   3.36419   3.39431   3.40861   3.41162
 Alpha virt. eigenvalues --    3.43783   3.45368   3.45432   3.45851   3.47049
 Alpha virt. eigenvalues --    3.48414   3.50687   3.53050   3.53654   3.54678
 Alpha virt. eigenvalues --    3.57763   3.60545   3.69416   3.87169   3.87953
 Alpha virt. eigenvalues --    3.92555  11.51745  11.68586
          Condensed to atoms (all electrons):
 Mulliken charges:
               1
     1  Zn   0.698941
     2  O   -0.836464
     3  O   -1.007629
     4  O   -0.477193
     5  O   -0.467145
     6  C    0.460398
     7  Zn   0.580466
     8  O   -0.485069
     9  O   -0.465420
    10  O   -0.435435
    11  O   -0.440957
    12  C    0.496906
    13  C    0.444279
    14  H    0.088900
    15  H    0.091053
    16  H    0.080263
    17  C   -0.262412
    18  C    0.055326
    19  C   -0.474966
    20  C    0.002148
    21  C   -0.189979
    22  N    0.232419
    23  H    0.146764
    24  H    0.194460
    25  H    0.150634
    26  H    0.145507
    27  H    0.189409
    28  C   -0.273443
    29  C    0.075799
    30  C   -0.565569
    31  C    0.145482
    32  C   -0.264121
    33  N    0.157553
    34  H    0.148319
    35  H    0.194550
    36  H    0.147803
    37  H    0.146965
    38  H    0.192352
    39  H    0.552646
    40  H    0.412930
    41  H    0.393306
    42  C   -0.312474
    43  C    0.100250
    44  C   -0.231786
    45  O   -0.272225
    46  C   -0.412197
    47  C    0.109935
    48  C    0.036173
    49  O   -0.280569
    50  H    0.137459
    51  H    0.132517
    52  H    0.135918
    53  H    0.155777
    54  H    0.120563
    55  H    0.192797
    56  H    0.128228
    57  H    0.160601
    58  H    0.156559
    59  H    0.196947
    60  C    0.536444
    61  O   -0.445033
    62  O   -0.325661
 Sum of Mulliken charges =   0.00000
 Mulliken charges with hydrogens summed into heavy atoms:
               1
     1  Zn   0.698941
     2  O    0.109488
     3  O   -0.594699
     4  O   -0.477193
     5  O   -0.467145
     6  C    0.549298
     7  Zn   0.580466
     8  O   -0.485069
     9  O   -0.465420
    10  O   -0.435435
    11  O   -0.440957
    12  C    0.587958
    13  C    0.524542
    17  C   -0.067952
    18  C    0.205960
    19  C   -0.328202
    20  C    0.147655
    21  C   -0.000569
    22  N    0.232419
    28  C   -0.078893
    29  C    0.223603
    30  C   -0.417250
    31  C    0.292447
    32  C   -0.071769
    33  N    0.157553
    42  C   -0.042497
    43  C    0.236168
    44  C    0.044555
    45  O   -0.272225
    46  C   -0.091171
    47  C    0.270536
    48  C    0.389679
    49  O   -0.280569
    60  C    0.536444
    61  O   -0.445033
    62  O   -0.325661
 Electronic spatial extent (au):  <R**2>=          21661.5834
 Charge=              0.0000 electrons
 Dipole moment (field-independent basis, Debye):
    X=             -3.8682    Y=              1.6542    Z=             -1.9011  Tot=              4.6166
 Quadrupole moment (field-independent basis, Debye-Ang):
   XX=           -180.5214   YY=           -187.9202   ZZ=           -210.5086
   XY=             48.5144   XZ=             -0.5511   YZ=             -3.5827
 Traceless Quadrupole moment (field-independent basis, Debye-Ang):
   XX=             12.4620   YY=              5.0632   ZZ=            -17.5252
   XY=             48.5144   XZ=             -0.5511   YZ=             -3.5827
 Octapole moment (field-independent basis, Debye-Ang**2):
  XXX=            169.6881  YYY=           -372.3038  ZZZ=            791.9108  XYY=            175.9058
  XXY=           -239.7000  XXZ=            246.2129  XZZ=            125.6941  YZZ=           -164.1302
  YYZ=            286.3801  XYZ=              1.9284
 Hexadecapole moment (field-independent basis, Debye-Ang**3):
 XXXX=          -9862.8005 YYYY=          -6508.1165 ZZZZ=          -9667.8146 XXXY=           -162.8045
 XXXZ=            629.3318 YYYX=           -945.0085 YYYZ=            926.0926 ZZZX=            605.9510
 ZZZY=            549.2418 XXYY=          -2519.6476 XXZZ=          -3449.2503 YYZZ=          -2733.8011
 XXYZ=            237.4106 YYXZ=             68.5226 ZZXY=           -520.7892
 N-N= 4.534790046502D+03 E-N=-1.373020320747D+04  KE= 2.007004298618D+03
  Exact polarizability: 350.437  52.407 317.520   9.112 -17.105 324.283
 Approx polarizability: 494.727  68.306 461.185  18.797 -21.961 456.941
   1 Symmetry operations used in ECPInt.
 ECPInt:  NShTT=   33930 NPrTT=  156665 LenC2=   26990 LenP2D=   72841.
 LDataN:  DoStor=T MaxTD1= 7 Len=  274
 Calling FoFJK, ICntrl=    100127 FMM=F ISym2X=0 I1Cent= 0 IOpClX= 0 NMat=1 NMatS=1 NMatT=0.
 -------------------------------------------------------------------
 Center     Atomic                   Forces (Hartrees/Bohr)
 Number     Number              X              Y              Z
 -------------------------------------------------------------------
      1       30           0.006054382    0.006006030    0.002842025
      2        8           0.001717158   -0.007475283   -0.007099107
      3        8           0.008517265   -0.002526065    0.000322375
      4        8          -0.000000000   -0.000000000   -0.000000000
      5        8          -0.000000000   -0.000000000   -0.000000000
      6        6          -0.000000000   -0.000000000   -0.000000000
      7       30          -0.006354195   -0.005859436    0.003008392
      8        8          -0.000000000   -0.000000000   -0.000000000
      9        8          -0.000000000   -0.000000000   -0.000000000
     10        8          -0.000000000   -0.000000000   -0.000000000
     11        8          -0.000000000   -0.000000000   -0.000000000
     12        6          -0.000000000   -0.000000000   -0.000000000
     13        6          -0.000000000   -0.000000000   -0.000000000
     14        1          -0.000000000   -0.000000000   -0.000000000
     15        1          -0.000000000   -0.000000000   -0.000000000
     16        1          -0.000000000   -0.000000000   -0.000000000
     17        6          -0.000000000   -0.000000000   -0.000000000
     18        6          -0.000000000   -0.000000000   -0.000000000
     19        6          -0.000000000   -0.000000000   -0.000000000
     20        6          -0.000000000   -0.000000000   -0.000000000
     21        6          -0.000000000   -0.000000000   -0.000000000
     22        7          -0.000000000   -0.000000000   -0.000000000
     23        1          -0.000000000   -0.000000000   -0.000000000
     24        1          -0.000000000   -0.000000000   -0.000000000
     25        1          -0.000000000   -0.000000000   -0.000000000
     26        1          -0.000000000   -0.000000000   -0.000000000
     27        1          -0.000000000   -0.000000000   -0.000000000
     28        6          -0.000000000   -0.000000000   -0.000000000
     29        6          -0.000000000   -0.000000000   -0.000000000
     30        6          -0.000000000   -0.000000000   -0.000000000
     31        6          -0.000000000   -0.000000000   -0.000000000
     32        6          -0.000000000   -0.000000000   -0.000000000
     33        7          -0.000000000   -0.000000000   -0.000000000
     34        1          -0.000000000   -0.000000000   -0.000000000
     35        1          -0.000000000   -0.000000000   -0.000000000
     36        1          -0.000000000   -0.000000000   -0.000000000
     37        1          -0.000000000   -0.000000000   -0.000000000
     38        1          -0.000000000   -0.000000000   -0.000000000
     39        1          -0.001915904   -0.005391321    0.006790136
     40        1          -0.009140189    0.002956984   -0.005175033
     41        1           0.002312716    0.009889218    0.000959231
     42        6           0.000375309   -0.000846264    0.001033783
     43        6           0.000729526    0.001164294   -0.000527962
     44        6           0.008172539   -0.012228654    0.005228406
     45        8           0.002350073    0.014769323    0.008424650
     46        6          -0.009628467    0.000219238   -0.013270492
     47        6           0.007061066   -0.004618261    0.016928193
     48        6           0.013248083   -0.004195226    0.015149959
     49        8          -0.014046604   -0.016027893    0.002054598
     50        1          -0.000673915   -0.000566878    0.000253762
     51        1           0.000543293    0.000146067    0.000534477
     52        1          -0.000762817   -0.000082193   -0.000614060
     53        1          -0.000075692   -0.000948737   -0.000454618
     54        1           0.000196706   -0.000922353   -0.000133676
     55        1          -0.000776579    0.000194706   -0.000590421
     56        1          -0.000292360    0.000069252   -0.001071232
     57        1           0.000879802   -0.000416027   -0.000087304
     58        1           0.000176444   -0.001016225   -0.000306900
     59        1          -0.000426290    0.000148947    0.000041452
     60        6          -0.001942120    0.000462012   -0.003293858
     61        8          -0.013665188    0.005169164   -0.028236145
     62        8           0.010751924    0.018423246   -0.003780236
 -------------------------------------------------------------------
 Cartesian Forces:  Max     0.028236145 RMS     0.004756833

 GradGradGradGradGradGradGradGradGradGradGradGradGradGradGradGradGradGrad
 Berny optimization.
 Search for a local minimum.
 Step number   1 out of a maximum of  196
 All quantities printed in internal units (Hartrees-Bohrs-Radians)
 Second derivative matrix not updated -- analytic derivatives used.
 ITU=  0
     Eigenvalues ---    0.00005   0.00010   0.00014   0.00029   0.00059
     Eigenvalues ---    0.00080   0.00099   0.00215   0.00241   0.00274
     Eigenvalues ---    0.00413   0.00471   0.00675   0.00693   0.00768
     Eigenvalues ---    0.01084   0.01117   0.01417   0.01471   0.01535
     Eigenvalues ---    0.01699   0.02025   0.02157   0.02320   0.03193
     Eigenvalues ---    0.03530   0.04060   0.04137   0.04554   0.04670
     Eigenvalues ---    0.05520   0.05645   0.05989   0.06792   0.07552
     Eigenvalues ---    0.07753   0.08690   0.08822   0.09932   0.10230
     Eigenvalues ---    0.10300   0.10673   0.11081   0.12265   0.12423
     Eigenvalues ---    0.12956   0.13112   0.13866   0.14264   0.14709
     Eigenvalues ---    0.15239   0.16406   0.17942   0.18568   0.19715
     Eigenvalues ---    0.20126   0.21151   0.24329   0.25026   0.29067
     Eigenvalues ---    0.31475   0.32880   0.35473   0.37795   0.42636
     Eigenvalues ---    0.47132   0.50119   0.54133   0.56113   0.61397
     Eigenvalues ---    0.64148   0.67531   0.73522   0.81182   0.82443
     Eigenvalues ---    0.84944   0.87385   0.89428   0.97457   0.98569
     Eigenvalues ---    1.00386   1.06314   1.45807   1.54955
 RFO step:  Lambda=-1.34257067D-02 EMin= 5.43242084D-05
 Linear search not attempted -- first point.
 Maximum step size (   0.300) exceeded in Quadratic search.
    -- Step size scaled by   0.932
 Variable       Old X    -DE/DX   Delta X   Delta X   Delta X     New X
                                 (Linear)    (Quad)   (Total)
    X1       -5.10111   0.00605   0.00000   0.03268   0.03268  -5.06842
    Y1       -0.21531   0.00601   0.00000   0.05150   0.05150  -0.16382
    Z1       -0.26553   0.00284   0.00000   0.01270   0.01270  -0.25283
    X2       -2.17302   0.00172   0.00000  -0.00147  -0.00147  -2.17448
    Y2       -2.27078  -0.00748   0.00000  -0.03131  -0.03131  -2.30210
    Z2       -1.90919  -0.00710   0.00000  -0.10024  -0.10024  -2.00942
    X3        1.49381   0.00852   0.00000   0.02035   0.02035   1.51415
    Y3        0.42815  -0.00253   0.00000  -0.00635  -0.00635   0.42180
    Z3       -1.22487   0.00032   0.00000  -0.03438  -0.03438  -1.25925
    X4       -3.66700  -0.00000   0.00000   0.00000   0.00000  -3.66700
    Y4       -1.20542  -0.00000   0.00000   0.00000   0.00000  -1.20542
    Z4        3.25893  -0.00000   0.00000   0.00000   0.00000   3.25893
    X5       -0.70429  -0.00000   0.00000   0.00000   0.00000  -0.70429
    Y5        1.91028  -0.00000   0.00000   0.00000   0.00000   1.91028
    Z5        3.62255  -0.00000   0.00000   0.00000   0.00000   3.62255
    X6       -2.01960  -0.00000   0.00000   0.00000   0.00000  -2.01960
    Y6        0.10841  -0.00000   0.00000   0.00000   0.00000   0.10841
    Z6        4.45388  -0.00000   0.00000   0.00000   0.00000   4.45388
    X7       -0.35450  -0.00635   0.00000  -0.02564  -0.02564  -0.38014
    Y7        3.57585  -0.00586   0.00000  -0.05219  -0.05219   3.52366
    Z7       -0.16925   0.00301   0.00000   0.01667   0.01667  -0.15257
    X8       -3.08040  -0.00000   0.00000   0.00000   0.00000  -3.08040
    Y8        6.08644  -0.00000   0.00000   0.00000   0.00000   6.08644
    Z8        1.02173  -0.00000   0.00000   0.00000   0.00000   1.02173
    X9       -6.32125  -0.00000   0.00000   0.00000   0.00000  -6.32125
    Y9        3.26012  -0.00000   0.00000   0.00000   0.00000   3.26012
    Z9        1.36098  -0.00000   0.00000   0.00000   0.00000   1.36098
   X10       -2.05141  -0.00000   0.00000   0.00000   0.00000  -2.05141
   Y10        3.75065  -0.00000   0.00000   0.00000   0.00000   3.75065
   Z10       -3.89425  -0.00000   0.00000   0.00000   0.00000  -3.89425
   X11       -5.65738  -0.00000   0.00000   0.00000   0.00000  -5.65738
   Y11        1.39334  -0.00000   0.00000   0.00000   0.00000   1.39334
   Z11       -3.80093  -0.00000   0.00000   0.00000   0.00000  -3.80093
   X12       -5.32107  -0.00000   0.00000   0.00000   0.00000  -5.32107
   Y12        5.42457  -0.00000   0.00000   0.00000   0.00000   5.42457
   Z12        1.58880  -0.00000   0.00000   0.00000   0.00000   1.58880
   X13       -4.06455  -0.00000   0.00000   0.00000   0.00000  -4.06455
   Y13        2.87770  -0.00000   0.00000   0.00000   0.00000   2.87770
   Z13       -4.83599  -0.00000   0.00000   0.00000   0.00000  -4.83599
   X14       -1.71602  -0.00000   0.00000   0.00000   0.00000  -1.71602
   Y14       -0.44338  -0.00000   0.00000   0.00000   0.00000  -0.44338
   Z14        6.46269  -0.00000   0.00000   0.00000   0.00000   6.46269
   X15       -6.55099  -0.00000   0.00000   0.00000   0.00000  -6.55099
   Y15        6.93289  -0.00000   0.00000   0.00000   0.00000   6.93289
   Z15        2.38283  -0.00000   0.00000   0.00000   0.00000   2.38283
   X16       -4.51509  -0.00000   0.00000   0.00000   0.00000  -4.51509
   Y16        3.47021  -0.00000   0.00000   0.00000   0.00000   3.47021
   Z16       -6.80091  -0.00000   0.00000   0.00000   0.00000  -6.80091
   X17        4.89701  -0.00000   0.00000   0.00000   0.00000   4.89701
   Y17        5.40406  -0.00000   0.00000   0.00000   0.00000   5.40406
   Z17       -1.04149  -0.00000   0.00000   0.00000   0.00000  -1.04149
   X18        7.00826  -0.00000   0.00000   0.00000   0.00000   7.00826
   Y18        7.00675  -0.00000   0.00000   0.00000   0.00000   7.00675
   Z18       -1.01544  -0.00000   0.00000   0.00000   0.00000  -1.01544
   X19        6.73884  -0.00000   0.00000   0.00000   0.00000   6.73884
   Y19        9.46134  -0.00000   0.00000   0.00000   0.00000   9.46134
   Z19       -0.03998  -0.00000   0.00000   0.00000   0.00000  -0.03998
   X20        4.36501  -0.00000   0.00000   0.00000   0.00000   4.36501
   Y20       10.23291  -0.00000   0.00000   0.00000   0.00000  10.23291
   Z20        0.86765  -0.00000   0.00000   0.00000   0.00000   0.86765
   X21        2.34497  -0.00000   0.00000   0.00000   0.00000   2.34497
   Y21        8.51926  -0.00000   0.00000   0.00000   0.00000   8.51926
   Z21        0.77554  -0.00000   0.00000   0.00000   0.00000   0.77554
   X22        2.61528  -0.00000   0.00000   0.00000   0.00000   2.61528
   Y22        6.15252  -0.00000   0.00000   0.00000   0.00000   6.15252
   Z22       -0.15606  -0.00000   0.00000   0.00000   0.00000  -0.15606
   X23        8.35087  -0.00000   0.00000   0.00000   0.00000   8.35087
   Y23       10.75330  -0.00000   0.00000   0.00000   0.00000  10.75330
   Z23        0.01090  -0.00000   0.00000   0.00000   0.00000   0.01090
   X24        4.97028  -0.00000   0.00000   0.00000   0.00000   4.97028
   Y24        3.46979  -0.00000   0.00000   0.00000   0.00000   3.46979
   Z24       -1.76621  -0.00000   0.00000   0.00000   0.00000  -1.76621
   X25        8.81639  -0.00000   0.00000   0.00000   0.00000   8.81639
   Y25        6.33064  -0.00000   0.00000   0.00000   0.00000   6.33064
   Z25       -1.74506  -0.00000   0.00000   0.00000   0.00000  -1.74506
   X26        4.07193  -0.00000   0.00000   0.00000   0.00000   4.07193
   Y26       12.12530  -0.00000   0.00000   0.00000   0.00000  12.12530
   Z26        1.63740  -0.00000   0.00000   0.00000   0.00000   1.63740
   X27        0.45209  -0.00000   0.00000   0.00000   0.00000   0.45209
   Y27        9.00184  -0.00000   0.00000   0.00000   0.00000   9.00184
   Z27        1.44468  -0.00000   0.00000   0.00000   0.00000   1.44468
   X28       -8.94747  -0.00000   0.00000   0.00000   0.00000  -8.94747
   Y28       -3.75931  -0.00000   0.00000   0.00000   0.00000  -3.75931
   Z28        1.92471  -0.00000   0.00000   0.00000   0.00000   1.92471
   X29      -11.13792  -0.00000   0.00000   0.00000   0.00000 -11.13792
   Y29       -5.24484  -0.00000   0.00000   0.00000   0.00000  -5.24484
   Z29        2.05762  -0.00000   0.00000   0.00000   0.00000   2.05762
   X30      -12.76454  -0.00000   0.00000   0.00000   0.00000 -12.76454
   Y30       -5.31626  -0.00000   0.00000   0.00000   0.00000  -5.31626
   Z30       -0.04021  -0.00000   0.00000   0.00000   0.00000  -0.04021
   X31      -12.14445  -0.00000   0.00000   0.00000   0.00000 -12.14445
   Y31       -3.89762  -0.00000   0.00000   0.00000   0.00000  -3.89762
   Z31       -2.19724  -0.00000   0.00000   0.00000   0.00000  -2.19724
   X32       -9.92068  -0.00000   0.00000   0.00000   0.00000  -9.92068
   Y32       -2.45560  -0.00000   0.00000   0.00000   0.00000  -2.45560
   Z32       -2.18360  -0.00000   0.00000   0.00000   0.00000  -2.18360
   X33       -8.35500  -0.00000   0.00000   0.00000   0.00000  -8.35500
   Y33       -2.39626  -0.00000   0.00000   0.00000   0.00000  -2.39626
   Z33       -0.15913  -0.00000   0.00000   0.00000   0.00000  -0.15913
   X34      -14.48640  -0.00000   0.00000   0.00000   0.00000 -14.48640
   Y34       -6.45744  -0.00000   0.00000   0.00000   0.00000  -6.45744
   Z34        0.00586  -0.00000   0.00000   0.00000   0.00000   0.00586
   X35       -7.60690  -0.00000   0.00000   0.00000   0.00000  -7.60690
   Y35       -3.62292  -0.00000   0.00000   0.00000   0.00000  -3.62292
   Z35        3.48999  -0.00000   0.00000   0.00000   0.00000   3.48999
   X36      -11.54815  -0.00000   0.00000   0.00000   0.00000 -11.54815
   Y36       -6.31596  -0.00000   0.00000   0.00000   0.00000  -6.31596
   Z36        3.77316  -0.00000   0.00000   0.00000   0.00000   3.77316
   X37      -13.35563  -0.00000   0.00000   0.00000   0.00000 -13.35563
   Y37       -3.89645  -0.00000   0.00000   0.00000   0.00000  -3.89645
   Z37       -3.86803  -0.00000   0.00000   0.00000   0.00000  -3.86803
   X38       -9.33569  -0.00000   0.00000   0.00000   0.00000  -9.33569
   Y38       -1.30653  -0.00000   0.00000   0.00000   0.00000  -1.30653
   Z38       -3.79691  -0.00000   0.00000   0.00000   0.00000  -3.79691
   X39       -0.37384  -0.00192   0.00000  -0.06411  -0.06411  -0.43795
   Y39       -1.20766  -0.00539   0.00000  -0.07579  -0.07579  -1.28345
   Z39       -1.71078   0.00679   0.00000   0.00457   0.00457  -1.70621
   X40        2.64483  -0.00914   0.00000  -0.05497  -0.05497   2.58986
   Y40       -0.27183   0.00296   0.00000   0.00482   0.00482  -0.26701
   Z40        0.03660  -0.00518   0.00000   0.01486   0.01486   0.05146
   X41       -1.95232   0.00231   0.00000   0.04981   0.04981  -1.90252
   Y41       -4.05629   0.00989   0.00000   0.02938   0.02938  -4.02691
   Z41       -1.53664   0.00096   0.00000   0.08979   0.08979  -1.44685
   X42       -1.72017   0.00038   0.00000   0.01903   0.01903  -1.70114
   Y42        4.94207  -0.00085   0.00000  -0.00688  -0.00688   4.93519
   Z42      -14.69003   0.00103   0.00000   0.02093   0.02093 -14.66910
   X43       -1.54393   0.00073   0.00000   0.02601   0.02601  -1.51792
   Y43        3.64968   0.00116   0.00000  -0.01431  -0.01431   3.63537
   Z43      -12.52605  -0.00053   0.00000   0.01387   0.01387 -12.51218
   X44        0.36482   0.00817   0.00000   0.03868   0.03868   0.40351
   Y44        4.17092  -0.01223   0.00000  -0.04020  -0.04020   4.13072
   Z44      -10.50201   0.00523   0.00000   0.01879   0.01879 -10.48322
   X45        1.60385   0.00235   0.00000   0.01587   0.01587   1.61972
   Y45        1.78173   0.01477   0.00000   0.01718   0.01718   1.79891
   Z45       -9.86272   0.00842   0.00000   0.01132   0.01132  -9.85140
   X46        3.19306  -0.00963   0.00000  -0.01918  -0.01918   3.17388
   Y46        1.94640   0.00022   0.00000  -0.00191  -0.00191   1.94449
   Z46       -7.62831  -0.01327   0.00000  -0.03269  -0.03269  -7.66100
   X47        4.28058   0.00706   0.00000   0.00774   0.00774   4.28831
   Y47       -0.68399  -0.00462   0.00000  -0.00150  -0.00150  -0.68549
   Z47       -7.29614   0.01693   0.00000   0.01771   0.01771  -7.27843
   X48        2.29657   0.01325   0.00000   0.03170   0.03170   2.32827
   Y48       -2.72230  -0.00420   0.00000  -0.01249  -0.01249  -2.73479
   Z48       -6.62918   0.01515   0.00000   0.01964   0.01964  -6.60954
   X49        5.98462  -0.01405   0.00000  -0.05127  -0.05127   5.93335
   Y49       -0.66380  -0.01603   0.00000  -0.00103  -0.00103  -0.66483
   Z49       -5.07310   0.00205   0.00000  -0.02772  -0.02772  -5.10082
   X50       -3.17535  -0.00067   0.00000   0.00305   0.00305  -3.17230
   Y50        4.53772  -0.00057   0.00000  -0.00166  -0.00166   4.53606
   Z50      -16.07819   0.00025   0.00000   0.03332   0.03332 -16.04487
   X51       -0.41562   0.00054   0.00000   0.02157   0.02157  -0.39405
   Y51        6.46044   0.00015   0.00000  -0.00870  -0.00870   6.45174
   Z51      -15.15516   0.00053   0.00000   0.01861   0.01861 -15.13654
   X52       -2.85511  -0.00076   0.00000   0.00751   0.00751  -2.84760
   Y52        2.11983  -0.00008   0.00000  -0.00428  -0.00428   2.11555
   Z52      -12.11001  -0.00061   0.00000   0.00089   0.00089 -12.10912
   X53       -0.54334  -0.00008   0.00000   0.02051   0.02051  -0.52283
   Y53        4.92282  -0.00095   0.00000  -0.02441  -0.02441   4.89841
   Z53       -8.78852  -0.00045   0.00000   0.00402   0.00402  -8.78450
   X54        1.77937   0.00020   0.00000   0.02551   0.02551   1.80488
   Y54        5.55463  -0.00092   0.00000  -0.02670  -0.02670   5.52793
   Z54      -11.14169  -0.00013   0.00000   0.01183   0.01183 -11.12985
   X55        2.07916  -0.00078   0.00000  -0.01266  -0.01266   2.06650
   Y55        2.47541   0.00019   0.00000   0.00906   0.00906   2.48447
   Z55       -5.96584  -0.00059   0.00000  -0.02799  -0.02799  -5.99383
   X56        4.72333  -0.00029   0.00000  -0.01071  -0.01071   4.71261
   Y56        3.32385   0.00007   0.00000  -0.00382  -0.00382   3.32003
   Z56       -7.90766  -0.00107   0.00000  -0.02450  -0.02450  -7.93215
   X57        5.41914   0.00088   0.00000   0.00621   0.00621   5.42535
   Y57       -1.21346  -0.00042   0.00000  -0.00249  -0.00249  -1.21594
   Z57       -8.93479  -0.00009   0.00000   0.01033   0.01033  -8.92446
   X58        2.02746   0.00018   0.00000   0.02483   0.02483   2.05229
   Y58       -4.11963  -0.00102   0.00000  -0.00271  -0.00271  -4.12234
   Z58       -8.11351  -0.00031   0.00000   0.00528   0.00528  -8.10823
   X59        0.49597  -0.00043   0.00000   0.01825   0.01825   0.51422
   Y59       -1.92725   0.00015   0.00000  -0.01497  -0.01497  -1.94222
   Z59       -6.02518   0.00004   0.00000  -0.00281  -0.00281  -6.02800
   X60        5.35056  -0.00194   0.00000  -0.02129  -0.02129   5.32928
   Y60       -2.60580   0.00046   0.00000   0.02305   0.02305  -2.58274
   Z60       -3.42334  -0.00329   0.00000  -0.07778  -0.07778  -3.50112
   X61        6.40177  -0.01367   0.00000  -0.01325  -0.01325   6.38852
   Y61       -3.00404   0.00517   0.00000   0.01565   0.01565  -2.98839
   Z61       -1.41313  -0.02824   0.00000  -0.11545  -0.11545  -1.52858
   X62        3.41356   0.01075   0.00000   0.02385   0.02385   3.43741
   Y62       -4.04027   0.01842   0.00000   0.03823   0.03823  -4.00204
   Z62       -4.42161  -0.00378   0.00000  -0.04317  -0.04317  -4.46478
         Item               Value     Threshold  Converged?
 Maximum Force            0.028236     0.000015     NO 
 RMS     Force            0.004757     0.000010     NO 
 Maximum Displacement     0.115455     0.000060     NO 
 RMS     Displacement     0.021997     0.000040     NO 
 Predicted change in Energy=-7.285811D-03
 GradGradGradGradGradGradGradGradGradGradGradGradGradGradGradGradGradGrad

 Symmetry turned off by external request.
 Stoichiometry    C20H26N2O12Zn2
 Framework group  C1[X(C20H26N2O12Zn2)]
 Deg. of freedom   180
 Full point group                 C1      NOp   1
                          Input orientation:                          
 ---------------------------------------------------------------------
 Center     Atomic      Atomic             Coordinates (Angstroms)
 Number     Number       Type             X           Y           Z
 ---------------------------------------------------------------------
      1         30           0       -2.682093   -0.086687   -0.133794
      2          8           0       -1.150687   -1.218217   -1.063342
      3          8           0        0.801256    0.223207   -0.666367
      4          8           0       -1.940493   -0.637880    1.724552
      5          8           0       -0.372693    1.010875    1.916972
      6          6           0       -1.068724    0.057367    2.356892
      7         30           0       -0.201161    1.864641   -0.080738
      8          8           0       -1.630079    3.220806    0.540676
      9          8           0       -3.345064    1.725183    0.720202
     10          8           0       -1.085559    1.984761   -2.060749
     11          8           0       -2.993756    0.737325   -2.011366
     12          6           0       -2.815788    2.870560    0.840756
     13          6           0       -2.150867    1.522812   -2.559095
     14          1           0       -0.908079   -0.234626    3.419908
     15          1           0       -3.466636    3.668730    1.260937
     16          1           0       -2.389282    1.836355   -3.598888
     17          6           0        2.591387    2.859704   -0.551135
     18          6           0        3.708612    3.707815   -0.537348
     19          6           0        3.566043    5.006726   -0.021154
     20          6           0        2.309865    5.415023    0.459138
     21          6           0        1.240906    4.508199    0.410399
     22          7           0        1.383948    3.255771   -0.082584
     23          1           0        4.419088    5.690402    0.005770
     24          1           0        2.630158    1.836132   -0.934636
     25          1           0        4.665434    3.350028   -0.923448
     26          1           0        2.154774    6.416431    0.866473
     27          1           0        0.239236    4.763568    0.764493
     28          6           0       -4.734795   -1.989342    1.018511
     29          6           0       -5.893934   -2.775449    1.088845
     30          6           0       -6.754703   -2.813244   -0.021280
     31          6           0       -6.426568   -2.062530   -1.162730
     32          6           0       -5.249797   -1.299450   -1.155511
     33          7           0       -4.421278   -1.268045   -0.084209
     34          1           0       -7.665873   -3.417132    0.003100
     35          1           0       -4.025399   -1.917166    1.846823
     36          1           0       -6.111019   -3.342262    1.996669
     37          1           0       -7.067496   -2.061912   -2.046875
     38          1           0       -4.940236   -0.691384   -2.009240
     39          1           0       -0.231752   -0.679171   -0.902886
     40          1           0        1.370497   -0.141294    0.027233
     41          1           0       -1.006768   -2.130948   -0.765638
     42          6           0       -0.900206    2.611592   -7.762555
     43          6           0       -0.803249    1.923755   -6.621161
     44          6           0        0.213527    2.185885   -5.547480
     45          8           0        0.857119    0.951943   -5.213136
     46          6           0        1.679544    1.028980   -4.054025
     47          6           0        2.269278   -0.362745   -3.851580
     48          6           0        1.232065   -1.447188   -3.497620
     49          8           0        3.139796   -0.351813   -2.699238
     50          1           0       -1.678709    2.400380   -8.490581
     51          1           0       -0.208524    3.414114   -8.009912
     52          1           0       -1.506885    1.119501   -6.407868
     53          1           0       -0.276671    2.592127   -4.648555
     54          1           0        0.955099    2.925256   -5.889665
     55          1           0        1.093542    1.314727   -3.171800
     56          1           0        2.493806    1.756885   -4.197513
     57          1           0        2.870973   -0.643450   -4.722622
     58          1           0        1.086025   -2.181451   -4.290688
     59          1           0        0.272113   -1.027777   -3.189878
     60          6           0        2.820132   -1.366730   -1.852712
     61          8           0        3.380659   -1.581387   -0.808890
     62          8           0        1.819000   -2.117791   -2.362662
 ---------------------------------------------------------------------
 Rotational constants (GHZ):           0.1130826           0.0699476           0.0600821
 Basis read from rwf:  (5D, 7F)
 Pseudo-potential data read from rwf file.
   778 basis functions,  1348 primitive gaussians,   816 cartesian basis functions
   140 alpha electrons      140 beta electrons
       nuclear repulsion energy      4541.4811791905 Hartrees.
 NAtoms=   62 NActive=   62 NUniq=   62 SFac= 1.00D+00 NAtFMM=   60 NAOKFM=T Big=T
 Integral buffers will be    131072 words long.
 Raffenetti 2 integral format.
 Two-electron integral symmetry is turned off.
 One-electron integrals computed using PRISM.
   1 Symmetry operations used in ECPInt.
 ECPInt:  NShTT=   33930 NPrTT=  156665 LenC2=   26991 LenP2D=   72883.
 LDataN:  DoStor=T MaxTD1= 5 Len=  102
 NBasis=   778 RedAO= T EigKep=  5.28D-06  NBF=   778
 NBsUse=   778 1.00D-06 EigRej= -1.00D+00 NBFU=   778
 Initial guess from the checkpoint file:  "OH_AGC_opt_freq_6_31Gdp_re.chk"
 B after Tr=     0.003403   -0.003589   -0.007778
         Rot=    1.000000   -0.000574   -0.000402    0.000174 Ang=  -0.08 deg.
 ExpMin= 3.51D-02 ExpMax= 5.48D+03 ExpMxC= 8.25D+02 IAcc=3 IRadAn=         5 AccDes= 0.00D+00
 Harris functional with IExCor=  402 and IRadAn=       5 diagonalized for initial guess.
 HarFok:  IExCor=  402 AccDes= 0.00D+00 IRadAn=         5 IDoV= 1 UseB2=F ITyADJ=14
 ICtDFT=  3500011 ScaDFX=  1.000000  1.000000  1.000000  1.000000
 FoFCou: FMM=F IPFlag=           0 FMFlag=      100000 FMFlg1=        2001
         NFxFlg=           0 DoJE=T BraDBF=F KetDBF=T FulRan=T
         wScrn=  0.000000 ICntrl=       500 IOpCl=  0 I1Cent=   200000004 NGrid=           0
         NMat0=    1 NMatS0=      1 NMatT0=    0 NMatD0=    1 NMtDS0=    0 NMtDT0=    0
 Symmetry not used in FoFCou.
 Gradient too large for Newton-Raphson -- use scaled steepest descent instead.
     Accept linear search using points  2 and  3.
 Gradient too large for Newton-Raphson -- use scaled steepest descent instead.
     Minimum is close to point  3 DX= -1.32D-02 DF= -6.61D-06 DXR=  7.08D-02 DFR=  5.04D-03 which will be used.
 Gradient too large for Newton-Raphson -- use scaled steepest descent instead.
     Accept linear search using points  1 and  2.
 Gradient too large for Newton-Raphson -- use scaled steepest descent instead.
 Gradient too large for Newton-Raphson -- use scaled steepest descent instead.
     Accept linear search using points  1 and  2.
 Gradient too large for Newton-Raphson -- use scaled steepest descent instead.
 Gradient too large for Newton-Raphson -- use scaled steepest descent instead.
 Restarting incremental Fock formation.
 Gradient too large for Newton-Raphson -- use scaled steepest descent instead.
     Accept linear search using points  1 and  2.
     Minimum is close to point  2 DX= -8.31D-02 DF= -5.72D-07 DXR=  6.83D-02 DFR=  6.88D-03 which will be used.
 Gradient too large for Newton-Raphson -- use scaled steepest descent instead.
 LinEq1:  Iter=  0 NonCon=     1 RMS=2.53D-05 Max=9.67D-04 NDo=     1
 AX will form     1 AO Fock derivatives at one time.
 LinEq1:  Iter=  1 NonCon=     1 RMS=6.47D-06 Max=6.07D-04 NDo=     1
 LinEq1:  Iter=  2 NonCon=     1 RMS=4.10D-06 Max=1.58D-04 NDo=     1
 LinEq1:  Iter=  3 NonCon=     1 RMS=3.46D-06 Max=2.15D-04 NDo=     1
 LinEq1:  Iter=  4 NonCon=     1 RMS=2.41D-06 Max=1.30D-04 NDo=     1
 LinEq1:  Iter=  5 NonCon=     1 RMS=1.61D-06 Max=9.59D-05 NDo=     1
 LinEq1:  Iter=  6 NonCon=     1 RMS=8.91D-07 Max=4.22D-05 NDo=     1
 LinEq1:  Iter=  7 NonCon=     1 RMS=6.24D-07 Max=3.04D-05 NDo=     1
 LinEq1:  Iter=  8 NonCon=     1 RMS=4.79D-07 Max=2.30D-05 NDo=     1
 LinEq1:  Iter=  9 NonCon=     1 RMS=3.22D-07 Max=1.55D-05 NDo=     1
 LinEq1:  Iter= 10 NonCon=     1 RMS=2.19D-07 Max=1.21D-05 NDo=     1
 LinEq1:  Iter= 11 NonCon=     1 RMS=1.40D-07 Max=8.50D-06 NDo=     1
 LinEq1:  Iter= 12 NonCon=     1 RMS=7.77D-08 Max=3.25D-06 NDo=     1
 LinEq1:  Iter= 13 NonCon=     1 RMS=5.88D-08 Max=2.72D-06 NDo=     1
 LinEq1:  Iter= 14 NonCon=     1 RMS=4.40D-08 Max=1.79D-06 NDo=     1
 LinEq1:  Iter= 15 NonCon=     1 RMS=2.68D-08 Max=1.52D-06 NDo=     1
 LinEq1:  Iter= 16 NonCon=     1 RMS=1.83D-08 Max=1.35D-06 NDo=     1
 LinEq1:  Iter= 17 NonCon=     1 RMS=8.65D-09 Max=5.79D-07 NDo=     1
 LinEq1:  Iter= 18 NonCon=     0 RMS=5.70D-09 Max=3.92D-07 NDo=     1
 Linear equations converged to 4.227D-08 4.227D-07 after    18 iterations.
     Accept linear search using points  1 and  2.
     Minimum is close to point  2 DX= -1.21D-04 DF= -9.09D-13 DXR=  1.21D-04 DFR=  1.39D-08 which will be used.
 LinEq1:  Iter=  0 NonCon=     1 RMS=4.73D-08 Max=9.81D-07 NDo=     1
 LinEq1:  Iter=  1 NonCon=     1 RMS=1.55D-08 Max=4.71D-07 NDo=     1
 LinEq1:  Iter=  2 NonCon=     1 RMS=9.60D-09 Max=4.91D-07 NDo=     1
 LinEq1:  Iter=  3 NonCon=     1 RMS=6.38D-09 Max=3.26D-07 NDo=     1
 LinEq1:  Iter=  4 NonCon=     1 RMS=4.08D-09 Max=1.42D-07 NDo=     1
 LinEq1:  Iter=  5 NonCon=     1 RMS=3.19D-09 Max=1.08D-07 NDo=     1
 LinEq1:  Iter=  6 NonCon=     1 RMS=1.93D-09 Max=9.67D-08 NDo=     1
 LinEq1:  Iter=  7 NonCon=     1 RMS=1.55D-09 Max=1.48D-07 NDo=     1
 LinEq1:  Iter=  8 NonCon=     1 RMS=1.10D-09 Max=5.80D-08 NDo=     1
 LinEq1:  Iter=  9 NonCon=     1 RMS=7.82D-10 Max=4.26D-08 NDo=     1
 LinEq1:  Iter= 10 NonCon=     1 RMS=6.05D-10 Max=2.90D-08 NDo=     1
 LinEq1:  Iter= 11 NonCon=     1 RMS=4.10D-10 Max=2.12D-08 NDo=     1
 LinEq1:  Iter= 12 NonCon=     1 RMS=2.89D-10 Max=1.32D-08 NDo=     1
 LinEq1:  Iter= 13 NonCon=     1 RMS=1.42D-10 Max=9.42D-09 NDo=     1
 LinEq1:  Iter= 14 NonCon=     1 RMS=7.85D-11 Max=6.73D-09 NDo=     1
 LinEq1:  Iter= 15 NonCon=     1 RMS=5.75D-11 Max=4.05D-09 NDo=     1
 LinEq1:  Iter= 16 NonCon=     0 RMS=3.33D-11 Max=1.37D-09 NDo=     1
 Linear equations converged to 1.587D-10 1.587D-09 after    16 iterations.
 SCF Done:  E(RB3LYP) =  -1921.49534791     a.u. after   12 cycles
            Convg  =    0.8648D-09                    61 Fock formations.
              S**2 =  0.0000                  -V/T =  1.9572
 DoSCS=F DFT=T ScalE2(SS,OS)=  1.000000  1.000000
 Range of M.O.s used for correlation:     1   778
 NBasis=   778 NAE=   140 NBE=   140 NFC=     0 NFV=     0
 NROrb=    778 NOA=   140 NOB=   140 NVA=   638 NVB=   638

 **** Warning!!: The largest alpha MO coefficient is  0.67763131D+02

   1 Symmetry operations used in ECPInt.
 ECPInt:  NShTT=   33930 NPrTT=  156665 LenC2=   26991 LenP2D=   72883.
 LDataN:  DoStor=T MaxTD1= 6 Len=  172
 Number of processors reduced to  11 by ecpmxn.
 Symmetrizing basis deriv contribution to polar:
 IMax=3 JMax=2 DiffMx= 0.00D+00
 G2DrvN: will do    63 centers at a time, making    1 passes.
 Calling FoFCou, ICntrl=  3107 FMM=T I1Cent=   0 AccDes= 0.00D+00.
 End of G2Drv F.D. properties file   721 does not exist.
 End of G2Drv F.D. properties file   722 does not exist.
 End of G2Drv F.D. properties file   788 does not exist.
          IDoAtm=11100010000000000000000000000000000000111111111111
          IDoAtm=111111111111
          Differentiating once with respect to electric field.
                with respect to dipole field.
[...]
 4592,-0.00004082,0.00039660,0.00131721,-0.00073973,-0.01183220,0.00224
 209,0.00812925,-0.27350633,0.05453268,0.08460660,0.00017311,-0.0011289
 5,0.00007765,-0.00000187,-0.00000077,-0.00000570,0.00000346,0.00000180
 ,0.00000014,0.00001739,-0.00000509,0.00000216,-0.00001239,0.00000816,0
 .00001538,-0.00004318,0.00005660,-0.00002504,0.00046773,-0.00079716,-0
 .00005562,0.00014525,0.00018800,-0.00041309,-0.00070193,-0.00179133,-0
 .00030012,0.00452668,-0.00125561,0.00016082,0.29814956,-0.00013185,0.0
 0037468,0.00003599,0.00024971,-0.00112441,-0.00085150,-0.00030226,-0.0
 0038214,0.00042624,0.,0.,0.,0.,0.,0.,0.,0.,0.,0.00019228,-0.00017981,-
 0.00027662,0.,0.,0.,0.,0.,0.,0.,0.,0.,0.,0.,0.,0.,0.,0.,0.,0.,0.,0.,0.
 ,0.,0.,0.,0.,0.,0.,0.,0.,0.,0.,0.,0.,0.,0.,0.,0.,0.,0.,0.,0.,0.,0.,0.,
 0.,0.,0.,0.,0.,0.,0.,0.,0.,0.,0.,0.,0.,0.,0.,0.,0.,0.,0.,0.,0.,0.,0.,0
 .,0.,0.,0.,0.,0.,0.,0.,0.,0.,0.,0.,0.,0.,0.,0.,0.,0.,0.,0.,0.,0.,0.,0.
 ,0.,0.,0.,0.00093272,0.00120237,-0.00006232,0.00000315,0.00012678,0.00
 012874,-0.00015767,0.00005242,0.00035539,-0.00001548,-0.00001649,-0.00
 001784,0.00004093,0.00002797,-0.00000051,0.00010195,-0.00007277,0.0001
 1642,-0.00004929,-0.00011038,-0.00026546,-0.00127637,0.00192053,0.0011
 0573,-0.02386815,0.00678198,0.01162818,0.05545932,-0.06941097,-0.02646
 893,-0.00053833,0.00038082,-0.00170422,-0.00000441,0.00000383,-0.00000
 557,-0.00000234,-0.00000072,0.00000481,-0.00000874,0.00000120,-0.00000
 609,0.00002174,-0.00002992,0.00001163,-0.00001206,0.00002548,-0.000026
 41,0.00042392,-0.00045646,-0.00042157,0.00016387,0.00013548,-0.0003329
 2,-0.00274810,-0.00367212,0.00116187,0.02049216,-0.00313974,-0.0084875
 2,-0.06410889,0.07119887,0.00051108,-0.00035643,-0.00006612,-0.0007629
 8,0.00006017,0.00038007,0.00016502,0.00089853,0.00063251,0.,0.,0.,0.,0
 .,0.,0.,0.,0.,0.00028872,-0.00064038,-0.00006012,0.,0.,0.,0.,0.,0.,0.,
 0.,0.,0.,0.,0.,0.,0.,0.,0.,0.,0.,0.,0.,0.,0.,0.,0.,0.,0.,0.,0.,0.,0.,0
 .,0.,0.,0.,0.,0.,0.,0.,0.,0.,0.,0.,0.,0.,0.,0.,0.,0.,0.,0.,0.,0.,0.,0.
 ,0.,0.,0.,0.,0.,0.,0.,0.,0.,0.,0.,0.,0.,0.,0.,0.,0.,0.,0.,0.,0.,0.,0.,
 0.,0.,0.,0.,0.,0.,0.,0.,0.,0.,0.,0.,0.,0.,0.,0.,0.00088782,-0.00026717
 ,-0.00159736,-0.00027560,0.00008686,0.00004731,0.00002848,0.00014276,-
 0.00006494,-0.00001127,-0.00002695,0.00001754,0.00005031,0.00004270,-0
 .00002442,-0.00030718,0.00019839,-0.00014033,-0.00020332,-0.00057615,0
 .00011977,0.00086101,-0.00018233,0.00115515,0.00765635,-0.00174182,-0.
 00409333,0.09447632,-0.02756444,-0.08227997,0.00117493,-0.00143986,0.0
 0137698,0.00000303,0.00000296,0.00000810,-0.00000454,-0.00001173,0.000
 00815,-0.00004698,-0.00000449,-0.00003414,0.00003541,0.00001978,0.0000
 0628,0.00002174,-0.00011872,0.00005128,-0.00033873,0.00030985,0.000084
 42,-0.00014103,-0.00010161,0.00011183,0.00071718,0.00177245,0.00033877
 ,0.01967791,-0.00450601,-0.00431628,-0.08547309,0.01938167,0.08931254,
 -0.00136030,0.00092918,0.00128647,0.00198484,-0.00088233,-0.00149662,0
 .00188925,-0.00559560,-0.00447164,0.,0.,0.,0.,0.,0.,0.,0.,0.,0.0002043
 6,0.00316237,0.00147985,0.,0.,0.,0.,0.,0.,0.,0.,0.,0.,0.,0.,0.,0.,0.,0
 .,0.,0.,0.,0.,0.,0.,0.,0.,0.,0.,0.,0.,0.,0.,0.,0.,0.,0.,0.,0.,0.,0.,0.
 ,0.,0.,0.,0.,0.,0.,0.,0.,0.,0.,0.,0.,0.,0.,0.,0.,0.,0.,0.,0.,0.,0.,0.,
 0.,0.,0.,0.,0.,0.,0.,0.,0.,0.,0.,0.,0.,0.,0.,0.,0.,0.,0.,0.,0.,0.,0.,0
 .,0.,0.,0.,0.,0.,0.,0.,-0.00175787,0.00050893,0.00130651,0.00176658,0.
 00125520,0.00186867,-0.00055551,-0.00000687,0.00067620,-0.00000591,-0.
 00006851,-0.00001123,0.00002896,0.00025574,-0.00010148,-0.00075481,0.0
 0026463,-0.00090575,-0.00177033,0.00121739,-0.00066170,-0.00335576,-0.
 00457326,-0.00501130,-0.00046092,0.01989782,-0.01135940,-0.03155876,-0
 .00130623,-0.03704126,-0.08156110,-0.04087998,-0.00021868,0.00002621,0
 .00000081,0.00000445,-0.00004241,-0.00001557,0.00001859,-0.00011008,-0
 .00000126,-0.00003130,0.00005342,-0.00000790,0.00001489,0.00001446,-0.
 00016298,0.00008022,-0.00007843,0.00038746,0.00019675,0.00064583,-0.00
 114636,0.00073859,0.00000307,-0.00066746,0.00014398,0.00009854,-0.0013
 0776,0.00425952,0.00027380,-0.00145663,-0.00015993,0.49912815,-0.00068
 498,0.00160442,0.00027625,0.00001980,-0.00283664,-0.00159611,-0.003998
 41,-0.00596782,0.00052238,0.,0.,0.,0.,0.,0.,0.,0.,0.,0.00193063,0.0016
 4455,-0.00079961,0.,0.,0.,0.,0.,0.,0.,0.,0.,0.,0.,0.,0.,0.,0.,0.,0.,0.
 ,0.,0.,0.,0.,0.,0.,0.,0.,0.,0.,0.,0.,0.,0.,0.,0.,0.,0.,0.,0.,0.,0.,0.,
 0.,0.,0.,0.,0.,0.,0.,0.,0.,0.,0.,0.,0.,0.,0.,0.,0.,0.,0.,0.,0.,0.,0.,0
 .,0.,0.,0.,0.,0.,0.,0.,0.,0.,0.,0.,0.,0.,0.,0.,0.,0.,0.,0.,0.,0.,0.,0.
 ,0.,0.,0.,0.,0.,0.00146337,0.00329765,0.00162556,0.00076496,0.00233560
 ,0.00021924,-0.00086279,0.00024082,0.00064282,-0.00029022,-0.00017870,
 -0.00024276,0.00004596,0.00083206,0.00000415,0.00073683,-0.00199506,-0
 .00001664,-0.00576005,0.00270750,-0.00434279,-0.00084268,-0.00649496,0
 .00026924,0.03245367,0.01628576,0.03051103,-0.00852680,0.02171439,-0.0
 3123414,-0.02370317,-0.18128330,0.07226186,0.00000991,-0.00002669,-0.0
 0014968,-0.00001011,-0.00002115,0.00006547,-0.00009700,-0.00010576,-0.
 00009307,-0.00015140,0.00029761,0.00002545,-0.00001692,0.00009760,0.00
 003653,0.00038670,0.00029983,-0.00011877,0.00049097,-0.00171643,0.0005
 3698,-0.00572796,-0.00336213,-0.00833637,0.00084230,-0.00380896,0.0065
 0544,0.00450883,-0.00503117,0.00791468,0.08145713,0.44935106,0.0006810
 6,-0.00019765,0.00183577,-0.00159591,-0.00209182,-0.00204327,-0.007304
 65,0.00162938,-0.00381541,0.,0.,0.,0.,0.,0.,0.,0.,0.,0.00207138,-0.002
 22772,0.00196935,0.,0.,0.,0.,0.,0.,0.,0.,0.,0.,0.,0.,0.,0.,0.,0.,0.,0.
 ,0.,0.,0.,0.,0.,0.,0.,0.,0.,0.,0.,0.,0.,0.,0.,0.,0.,0.,0.,0.,0.,0.,0.,
 0.,0.,0.,0.,0.,0.,0.,0.,0.,0.,0.,0.,0.,0.,0.,0.,0.,0.,0.,0.,0.,0.,0.,0
 .,0.,0.,0.,0.,0.,0.,0.,0.,0.,0.,0.,0.,0.,0.,0.,0.,0.,0.,0.,0.,0.,0.,0.
 ,0.,0.,0.,0.,0.,0.00309427,0.00305000,0.00215490,0.00647581,-0.0014072
 5,-0.00333909,0.00003625,0.00022276,0.00065191,0.00039740,0.00006480,0
 .00024814,0.00016740,-0.00074467,-0.00012198,-0.00233694,0.00324663,-0
 .00081018,0.00444717,-0.00318316,0.00365000,-0.00235245,0.00204306,-0.
 00267784,-0.02199943,0.01333085,-0.05332960,-0.02768539,-0.01454570,-0
 .03317088,-0.01802792,0.04229711,-0.12252121,-0.00001476,0.00006025,0.
 00020560,-0.00007039,0.00000564,-0.00003639,-0.00012493,0.00015740,0.0
 0005831,0.00032173,-0.00036022,-0.00006691,0.00009699,-0.00046844,0.00
 011500,0.00002511,0.00006286,0.00060804,0.00057210,-0.00020011,0.00043
 618,-0.00038933,0.00089615,0.00044066,-0.00307410,0.00340069,-0.004123
 19,0.00111245,-0.00071769,0.00193623,0.38817009,-0.07439217,0.88287816
 ,0.00067625,-0.00028652,-0.00063433,-0.00095743,0.00005138,0.00054607,
 -0.00199319,0.00190556,0.00140265,0.,0.,0.,0.,0.,0.,0.,0.,0.,0.0000971
 0,-0.00144778,-0.00085888,0.,0.,0.,0.,0.,0.,0.,0.,0.,0.,0.,0.,0.,0.,0.
 ,0.,0.,0.,0.,0.,0.,0.,0.,0.,0.,0.,0.,0.,0.,0.,0.,0.,0.,0.,0.,0.,0.,0.,
 0.,0.,0.,0.,0.,0.,0.,0.,0.,0.,0.,0.,0.,0.,0.,0.,0.,0.,0.,0.,0.,0.,0.,0
 .,0.,0.,0.,0.,0.,0.,0.,0.,0.,0.,0.,0.,0.,0.,0.,0.,0.,0.,0.,0.,0.,0.,0.
 ,0.,0.,0.,0.,0.,0.,0.,0.,0.00076839,0.00021494,-0.00032973,0.00001836,
 -0.00040719,-0.00095551,0.00021326,0.00002817,-0.00022740,-0.00007075,
 -0.00000458,-0.00005622,-0.00004390,0.00009383,0.00004932,0.00052586,-
 0.00073897,0.00043122,-0.00054921,0.00072785,-0.00060510,0.00082574,-0
 .00015037,0.00068375,0.00543515,-0.00083133,0.00028941,0.00507111,-0.0
 0894921,0.00316240,0.01143105,0.01381083,-0.02095525,-0.00000621,-0.00
 000978,-0.00004288,0.00002207,0.00001078,0.00000244,0.00005679,-0.0000
 2412,0.00000512,-0.00008682,0.00007636,-0.00000758,-0.00000679,0.00014
 811,-0.00005747,-0.00002278,-0.00004252,-0.00009147,-0.00010892,0.0003
 3907,-0.00021052,-0.00109512,-0.00004963,-0.00120853,-0.00149407,0.001
 37470,-0.00244176,-0.00027073,0.00054748,-0.00050662,-0.25916929,0.011
 36325,-0.29130560,0.26712161,-0.00000387,-0.00042646,-0.00003844,0.000
 31718,0.00088252,0.00035961,0.00199273,0.00134248,0.00004173,0.,0.,0.,
 0.,0.,0.,0.,0.,0.,-0.00085803,-0.00032038,0.00019460,0.,0.,0.,0.,0.,0.
 ,0.,0.,0.,0.,0.,0.,0.,0.,0.,0.,0.,0.,0.,0.,0.,0.,0.,0.,0.,0.,0.,0.,0.,
 0.,0.,0.,0.,0.,0.,0.,0.,0.,0.,0.,0.,0.,0.,0.,0.,0.,0.,0.,0.,0.,0.,0.,0
 .,0.,0.,0.,0.,0.,0.,0.,0.,0.,0.,0.,0.,0.,0.,0.,0.,0.,0.,0.,0.,0.,0.,0.
 ,0.,0.,0.,0.,0.,0.,0.,0.,0.,0.,0.,0.,0.,0.,0.,0.,0.,-0.00072393,-0.001
 08923,-0.00039471,-0.00061810,-0.00094500,0.00028255,0.00021503,-0.000
 10076,-0.00012140,0.00006623,0.00004491,0.00006435,-0.00001152,-0.0001
 9999,-0.00000590,-0.00011738,0.00047715,-0.00002083,0.00137644,-0.0007
 4156,0.00095803,-0.00007245,0.00179627,0.00041634,-0.00712155,-0.00600
 635,-0.00153122,-0.00095280,-0.00591085,0.00449389,0.02360415,0.002521
 68,0.05039567,-0.00000005,0.00000577,0.00003739,0.00000417,0.00000193,
 -0.00001686,0.00002277,0.00002450,0.00001861,0.00003782,-0.00007314,0.
 00000556,0.00000160,-0.00002181,-0.00000900,-0.00001024,-0.00013579,0.
 00001467,-0.00008260,0.00032607,-0.00011403,0.00151352,0.00059458,0.00
 186176,-0.00056520,0.00102815,-0.00143306,-0.00079261,0.00082581,-0.00
 166159,0.01225041,-0.09609356,0.03071786,-0.00072491,0.08850089,-0.000
 30023,0.00003211,-0.00117497,0.00070720,0.00116124,0.00125866,0.003862
 00,-0.00024472,0.00218609,0.,0.,0.,0.,0.,0.,0.,0.,0.,-0.00120880,0.000
 86313,-0.00127538,0.,0.,0.,0.,0.,0.,0.,0.,0.,0.,0.,0.,0.,0.,0.,0.,0.,0
 .,0.,0.,0.,0.,0.,0.,0.,0.,0.,0.,0.,0.,0.,0.,0.,0.,0.,0.,0.,0.,0.,0.,0.
 ,0.,0.,0.,0.,0.,0.,0.,0.,0.,0.,0.,0.,0.,0.,0.,0.,0.,0.,0.,0.,0.,0.,0.,
 0.,0.,0.,0.,0.,0.,0.,0.,0.,0.,0.,0.,0.,0.,0.,0.,0.,0.,0.,0.,0.,0.,0.,0
 .,0.,0.,0.,0.,0.,-0.00145252,-0.00164203,-0.00126044,-0.00330634,0.000
 42858,0.00107895,-0.00000623,-0.00011710,-0.00040125,-0.00024242,-0.00
 004473,-0.00014981,-0.00013572,0.00049868,0.00006106,0.00126528,-0.002
 07186,0.00044534,-0.00296690,0.00298858,-0.00214018,0.00102379,-0.0036
 2567,-0.00120907,0.00618117,0.00964210,0.00895272,0.00038444,-0.005920
 21,0.00878543,-0.02983442,0.03630283,-0.06428777,0.00001718,-0.0000393
 8,-0.00012516,0.00004086,0.00000376,0.00001890,0.00008982,-0.00009276,
 -0.00002472,-0.00022070,0.00022999,0.00003382,-0.00004713,0.00031268,-
 0.00009574,-0.00008731,-0.00006325,-0.00023060,-0.00003130,0.00026954,
 -0.00022654,-0.00095490,-0.00046335,-0.00157247,-0.00085016,0.00024116
 ,-0.00113220,-0.00095673,0.00075209,-0.00246526,-0.29109218,0.02920506
 ,-0.56977458,0.36401257,-0.04557102,0.65819092,0.00068624,-0.00067708,
 -0.00101895,-0.00053143,0.00120366,0.00148642,0.00082520,0.00341828,0.
 00185458,0.,0.,0.,0.,0.,0.,0.,0.,0.,-0.00086636,-0.00125850,-0.0007742
 4,0.,0.,0.,0.,0.,0.,0.,0.,0.,0.,0.,0.,0.,0.,0.,0.,0.,0.,0.,0.,0.,0.,0.
 ,0.,0.,0.,0.,0.,0.,0.,0.,0.,0.,0.,0.,0.,0.,0.,0.,0.,0.,0.,0.,0.,0.,0.,
 0.,0.,0.,0.,0.,0.,0.,0.,0.,0.,0.,0.,0.,0.,0.,0.,0.,0.,0.,0.,0.,0.,0.,0
 .,0.,0.,0.,0.,0.,0.,0.,0.,0.,0.,0.,0.,0.,0.,0.,0.,0.,0.,0.,0.,0.,0.,0.
 ,-0.00040345,-0.00143747,-0.00136417,-0.00139126,-0.00052422,-0.000224
 00,0.00039707,-0.00000095,-0.00048000,0.00001214,0.00006394,-0.0000022
 7,-0.00008257,-0.00016372,0.00007265,0.00055741,-0.00031370,0.00053267
 ,0.00124751,0.00080399,0.00039274,-0.00051130,0.00018853,-0.00016658,-
 0.00165897,-0.00144493,-0.00771551,-0.09949042,0.02428558,-0.04630357,
 0.00458748,-0.04413668,0.00648316,-0.00001124,-0.00000585,-0.00000940,
 0.00002889,0.00002498,-0.00002186,0.00012177,0.00000751,0.00006089,-0.
 00008069,-0.00002651,-0.00001237,-0.00003491,0.00022122,-0.00012343,-0
 .00009339,-0.00055274,-0.00009173,0.00005797,0.00081812,-0.00057500,0.
 00101297,0.00159447,0.00046247,-0.00387880,0.00381911,-0.01220908,-0.0
 1836923,0.01613012,-0.03787007,-0.12462320,-0.08489055,-0.03046209,-0.
 02567366,-0.02915442,-0.04462772,0.26798134,0.00026925,-0.00078996,-0.
 00030809,-0.00005705,0.00151935,0.00087404,0.00202532,0.00144382,0.000
 20066,0.,0.,0.,0.,0.,0.,0.,0.,0.,-0.00086405,-0.00062148,0.00012345,0.
 ,0.,0.,0.,0.,0.,0.,0.,0.,0.,0.,0.,0.,0.,0.,0.,0.,0.,0.,0.,0.,0.,0.,0.,
 0.,0.,0.,0.,0.,0.,0.,0.,0.,0.,0.,0.,0.,0.,0.,0.,0.,0.,0.,0.,0.,0.,0.,0
 .,0.,0.,0.,0.,0.,0.,0.,0.,0.,0.,0.,0.,0.,0.,0.,0.,0.,0.,0.,0.,0.,0.,0.
 ,0.,0.,0.,0.,0.,0.,0.,0.,0.,0.,0.,0.,0.,0.,0.,0.,0.,0.,0.,0.,0.,0.,-0.
 00080420,-0.00159934,-0.00072907,-0.00076544,-0.00050174,-0.00011173,0
 .00039045,-0.00019874,-0.00047723,0.00009699,0.00008385,0.00011799,-0.
 00005967,-0.00028649,-0.00003487,-0.00028544,0.00060913,0.00002789,0.0
 0154552,0.00012246,0.00091643,-0.00512355,-0.00246574,0.00082892,0.000
 39994,-0.03065652,0.01464091,0.00660561,-0.09995408,0.02550199,-0.0296
 0720,-0.06659694,0.02540278,0.00000914,0.00000017,0.00005786,0.0000105
 9,0.00001121,-0.00003465,0.00008181,0.00004017,0.00004823,0.00001197,-
 0.00007717,-0.00001604,0.00005883,0.00005309,-0.00005522,-0.00017818,0
 .00018799,0.00002644,0.00118025,-0.00040856,0.00029692,0.00028857,-0.0
 0010709,0.00145311,-0.01310925,0.01442265,-0.01620036,0.00599749,0.000
 68538,0.00781695,-0.06081314,-0.18708199,-0.00013128,-0.01806046,0.012
 37070,-0.02313993,0.11022537,0.35838987,-0.00039060,0.00003120,-0.0008
 3545,0.00101529,0.00070819,0.00112529,0.00398988,-0.00235521,-0.000088
 72,0.,0.,0.,0.,0.,0.,0.,0.,0.,-0.00130327,0.00093999,-0.00072706,0.,0.
 ,0.,0.,0.,0.,0.,0.,0.,0.,0.,0.,0.,0.,0.,0.,0.,0.,0.,0.,0.,0.,0.,0.,0.,
 0.,0.,0.,0.,0.,0.,0.,0.,0.,0.,0.,0.,0.,0.,0.,0.,0.,0.,0.,0.,0.,0.,0.,0
 .,0.,0.,0.,0.,0.,0.,0.,0.,0.,0.,0.,0.,0.,0.,0.,0.,0.,0.,0.,0.,0.,0.,0.
 ,0.,0.,0.,0.,0.,0.,0.,0.,0.,0.,0.,0.,0.,0.,0.,0.,0.,0.,0.,0.,0.,-0.001
 96365,-0.00116455,-0.00109902,-0.00112988,0.00066777,0.00110128,-0.000
 29398,-0.00010836,-0.00012645,-0.00011508,0.00002434,-0.00005476,-0.00
 009844,0.00009296,0.00009381,0.00106018,-0.00099422,0.00057070,-0.0003
 1501,0.00073503,-0.00004298,0.00519094,0.00190342,-0.00012875,-0.01422
 375,0.02312185,-0.02761410,-0.04136444,0.04965716,-0.12730757,-0.00036
 346,0.00916276,0.01371630,-0.00000092,-0.00002075,-0.00006136,0.000042
 95,0.00000555,-0.00000162,0.00010846,-0.00005517,-0.00000547,-0.000146
 07,0.00013105,0.00001734,-0.00008702,0.00023101,-0.00007917,-0.0001772
 3,-0.00006383,-0.00022588,-0.00141942,0.00163567,-0.00079671,0.0020812
 3,0.00067749,0.00109042,-0.01729927,0.01486991,-0.02416310,-0.00778199
 ,0.00433931,-0.00049016,-0.04586248,-0.02790324,-0.09952127,-0.0510466
 5,-0.03888946,-0.03481968,0.17104146,-0.03752739,0.29919182\\0.,0.,0.,
 0.,0.,0.,0.,0.,0.,0.,0.,0.,0.,0.,0.,0.,0.,0.,0.,0.,0.,0.,0.,0.,0.,0.,0
 .,0.,0.,0.,0.,0.,0.,0.,0.,0.,0.,0.,0.,0.,0.,0.,0.,0.,0.,0.,0.,0.,0.,0.
 ,0.,0.,0.,0.,0.,0.,0.,0.,0.,0.,0.,0.,0.,0.,0.,0.,0.,0.,0.,0.,0.,0.,0.,
 0.,0.,0.,0.,0.,0.,0.,0.,0.,0.,0.,0.,0.,0.,0.,0.,0.,0.,0.,0.,0.,0.,0.,0
 .,0.,0.,0.,0.,0.,0.,0.,0.,0.,0.,0.,0.,0.,0.,0.,0.,0.,0.,0.,0.,0.,0.,0.
 ,0.,0.,0.,0.,0.,0.,0.,0.,0.,0.,0.,0.,0.,0.,0.,0.,0.,0.,0.,0.,0.,0.,0.,
 0.,0.,0.,0.,0.,0.,0.,0.,0.,0.,0.,0.,0.,0.,0.,0.,0.,0.,0.,0.,0.,0.,0.,0
 .,0.,0.,0.,0.,0.,0.,0.,0.,0.,0.,0.,0.,0.,0.,0.,0.,0.,0.,0.\\\@


                                                                                    A
                                                                                  AA
                                                                                 AAA
                                                                                AAAA
                                                                               AAAAA
                                                                              AAAAAA   KKKKKKKK
                                                                             AAAAAAA   KKKKKKKK
                                                                            AAAAAAAA   KKKKKKKK
                                       ZZZZZZZZZZZZZZZZZZZZ                AAAA  AAA   KKKKKKKK
                                       ZZZZZZZZZZZZZZZZZZZ                AAAA   AAA   KKKKKKKK          K
                                       ZZZZZZZZZZZZZZZZZZ                AAAA    AAA   KKKKKKKK         KKK
                                       ZZZZZZZZZZZZZZZZZ                AAAA     AAA   KKKKKKKK        KKKKK
                                       ZZZZZZZZZZZZZZZZ                AAAA      AAA   KKKKKKKK       KKKKKKK
                                                ZZZZZZ                AAAA       AAA   KKKKKKKK      KKKKKKK
                                               ZZZZZZ                AAAA        AAA   KKKKKKKK     KKKKKKK
                                              ZZZZZZ                AAAA         AAA   KKKKKKKK    KKKKKKK
                                             ZZZZZZ                AAAA          AAA   KKKKKKKK   KKKKKKK
                                            ZZZZZZ                AAAAAAAAAAAAAAAAAA   KKKKKKKK  KKKKKKK
                                           ZZZZZZ                AAAAAAAAAAAAAAAAAAA   KKKKKKKK KKKKKKK
                                          ZZZZZZ                AAAAAAAAAAAAAAAAAAAA   KKKKKKKKKKKKKKK
                                         ZZZZZZ                AAAAAAAAAAAAAAAAAAAAA   KKKKKKKKKKKKKK
                                        ZZZZZZ                AAAAAA        AAAAAAAA   KKKKKKKKKKKKK
                                       ZZZZZZ                AAAAAA         AAAAAAAA   KKKKKKKKKKKK
                                      ZZZZZZ                AAAAAA          AAAAAAAA   KKKKKKKKKKK
                                     ZZZZZZ                AAAAAA           AAAAAAAA   KKKKKKKKKKKK
                                    ZZZZZZ                AAAAAA            AAAAAAAA   KKKKKKKKKKKKK
                                   ZZZZZZ                AAAAAA             AAAAAAAA   KKKKKKKKKKKKKK
                                  ZZZZZZ                AAAAAA              AAAAAAAA   KKKKKKKKKKKKKKK
                                 ZZZZZZ                AAAAAA               AAAAAAAA   KKKKK KKKKKKKKKK
                                ZZZZZZ                AAAAAA                AAAAAAAA   KKKKK  KKKKKKKKKK
                               ZZZZZZ                AAAAAA                            KKKKK   KKKKKKKKKK
                              ZZZZZZ                AAAAAA                             KKKKK    KKKKKKKKKK
                             ZZZZZZ                                                    KKKKK     KKKKKKKKKK
                            ZZZZZZ                                                     KKKKK      KKKKKKKKKK
                           ZZZZZZ                                                      KKKKK       KKKKKKKKKK
                          ZZZZZZ                                                       KKKKK        KKKKKKKKKK
                         ZZZZZZZZZZZZZZZZZZZZZZZZZZZZZZZZZZZZZZZZ                      KKKKK         KKKKKKKKKK
                        ZZZZZZZZZZZZZZZZZZZZZZZZZZZZZZZZZZZZZZZZZ                      KKKKK          KKKKKKKKKK
                       ZZZZZZZZZZZZZZZZZZZZZZZZZZZZZZZZZZZZZZZZZZ                      KKKKK           KKKKKKKKKK
                       ZZZZZZZZZZZZZZZZZZZZZZZZZZZZZZZZZZZZZZZZZZ                      KKKKK            KKKKKKKKKK
                       ZZZZZZZZZZZZZZZZZZZZZZZZZZZZZZZZZZZZZZZZZZ                      KKKKK             KKKKKKKKKK
                       ZZZZZZZZZZZZZZZZZZZZZZZZZZZZZZZZZZZZZZZZZZ                      KKKKK              KKKKKKKKKK
                       ZZZZZZZZZZZZZZZZZZZZZZZZZZZZZZZZZZZZZZZZZZ                      KKKKK               KKKKKKKKKK
                       ZZZZZZZZZZZZZZZZZZZZZZZZZZZZZZZZZZZZZZZZZZ                      KKKKK                KKKKKKKKKK
                       ZZZZZZZZZZZZZZZZZZZZZZZZZZZZZZZZZZZZZZZZZZ                      KKKKK
                                                                                       KKKKK
                                                                                          (J.P.)
 Job cpu time:       1 days  6 hours  2 minutes 32.8 seconds.
 Elapsed time:       0 days  0 hours 28 minutes 26.8 seconds.
 File lengths (MBytes):  RWF=   2161 Int=      0 D2E=      0 Chk=     46 Scr=      2
 Normal termination of Gaussian 16 at Tue Oct 10 23:50:33 2023.
