 Entering Gaussian System, Link 0=g16
 Input=OH_AGE_TEABr_CO2_bind_opt_freq_TEA_relax_6_31Gdp_1.com
 Output=OH_AGE_TEABr_CO2_bind_opt_freq_TEA_relax_6_31Gdp_1.log
 Initial command:
 /opt/ohpc/pub/apps/gaussian/avx2/g16/l1.exe "/scratch/g16-tmp/Gau-1732411.inp" -scrdir="/scratch/g16-tmp/"
 Entering Link 1 = /opt/ohpc/pub/apps/gaussian/avx2/g16/l1.exe PID=   1732413.
  
 Copyright (c) 1988-2017, Gaussian, Inc.  All Rights Reserved.
  
 This is part of the Gaussian(R) 16 program.  It is based on
 the Gaussian(R) 09 system (copyright 2009, Gaussian, Inc.),
 the Gaussian(R) 03 system (copyright 2003, Gaussian, Inc.),
 the Gaussian(R) 98 system (copyright 1998, Gaussian, Inc.),
 the Gaussian(R) 94 system (copyright 1995, Gaussian, Inc.),
 the Gaussian 92(TM) system (copyright 1992, Gaussian, Inc.),
 the Gaussian 90(TM) system (copyright 1990, Gaussian, Inc.),
 the Gaussian 88(TM) system (copyright 1988, Gaussian, Inc.),
 the Gaussian 86(TM) system (copyright 1986, Carnegie Mellon
 University), and the Gaussian 82(TM) system (copyright 1983,
 Carnegie Mellon University). Gaussian is a federally registered
 trademark of Gaussian, Inc.
  
 This software contains proprietary and confidential information,
 including trade secrets, belonging to Gaussian, Inc.
  
 This software is provided under written license and may be
 used, copied, transmitted, or stored only in accord with that
 written license.
  
 The following legend is applicable only to US Government
 contracts under FAR:
  
                    RESTRICTED RIGHTS LEGEND
  
 Use, reproduction and disclosure by the US Government is
 subject to restrictions as set forth in subparagraphs (a)
 and (c) of the Commercial Computer Software - Restricted
 Rights clause in FAR 52.227-19.
  
 Gaussian, Inc.
 340 Quinnipiac St., Bldg. 40, Wallingford CT 06492
  
  
 ---------------------------------------------------------------
 Warning -- This program may not be used in any manner that
 competes with the business of Gaussian, Inc. or will provide
 assistance to any competitor of Gaussian, Inc.  The licensee
 of this program is prohibited from giving any competitor of
 Gaussian, Inc. access to this program.  By using this program,
 the user acknowledges that Gaussian, Inc. is engaged in the
 business of creating and licensing software in the field of
 computational chemistry and represents and warrants to the
 licensee that it is not a competitor of Gaussian, Inc. and that
 it will not use this program in any manner prohibited above.
 ---------------------------------------------------------------
  

 Cite this work as:
 Gaussian 16, Revision B.01,
 M. J. Frisch, G. W. Trucks, H. B. Schlegel, G. E. Scuseria, 
 M. A. Robb, J. R. Cheeseman, G. Scalmani, V. Barone, 
 G. A. Petersson, H. Nakatsuji, X. Li, M. Caricato, A. V. Marenich, 
 J. Bloino, B. G. Janesko, R. Gomperts, B. Mennucci, H. P. Hratchian, 
 J. V. Ortiz, A. F. Izmaylov, J. L. Sonnenberg, D. Williams-Young, 
 F. Ding, F. Lipparini, F. Egidi, J. Goings, B. Peng, A. Petrone, 
 T. Henderson, D. Ranasinghe, V. G. Zakrzewski, J. Gao, N. Rega, 
 G. Zheng, W. Liang, M. Hada, M. Ehara, K. Toyota, R. Fukuda, 
 J. Hasegawa, M. Ishida, T. Nakajima, Y. Honda, O. Kitao, H. Nakai, 
 T. Vreven, K. Throssell, J. A. Montgomery, Jr., J. E. Peralta, 
 F. Ogliaro, M. J. Bearpark, J. J. Heyd, E. N. Brothers, K. N. Kudin, 
 V. N. Staroverov, T. A. Keith, R. Kobayashi, J. Normand, 
 K. Raghavachari, A. P. Rendell, J. C. Burant, S. S. Iyengar, 
 J. Tomasi, M. Cossi, J. M. Millam, M. Klene, C. Adamo, R. Cammi, 
 J. W. Ochterski, R. L. Martin, K. Morokuma, O. Farkas, 
 J. B. Foresman, and D. J. Fox, Gaussian, Inc., Wallingford CT, 2016.
 
 ******************************************
 Gaussian 16:  ES64L-G16RevB.01 20-Dec-2017
                 6-Oct-2023 
 ******************************************
 %nprocshared=64
 Will use up to   64 processors via shared memory.
 %mem=64GB
 %chk=OH_AGE_TEABr_CO2_bind_opt_freq_TEA_relax_6_31Gdp_1.chk
 ----------------------------------------------------------------------
 # opt=(calcall,tight,cartesian) freq b3lyp/gen nosymm scf=(qc,maxcycle
 =1024) pseudo=read
 ----------------------------------------------------------------------
 1/7=10,10=4,18=10,26=3,38=1/1,3;
 2/12=2,15=1,17=6,18=5,29=2,40=1/2;
 3/5=7,11=2,16=1,17=8,25=1,30=1,71=2,74=-5,140=1/1,2,3;
 4//1;
 5/5=2,7=1024,8=3,38=5/8;
 8/6=4,10=90,11=11/1;
 11/6=1,8=1,9=11,15=111,16=1,31=1/1,2,10;
 10/6=1,31=1/2;
 6/7=2,8=2,9=2,10=2,18=1,28=1/1;
 7/7=1,10=1,25=1,30=1/1,2,3,16;
 1/7=10,10=4,18=10,26=3/3(3);
 2/15=1,29=1/2;
 7/7=1,8=1,9=1,25=1,30=1,44=-1/16;
 99/12=1/99;
 2/15=1,29=1/2;
 3/5=7,6=1,11=2,16=1,17=8,25=1,30=1,71=2,74=-5,82=7,140=1/1,2,3;
 4/5=5,16=3,69=1/1;
 5/5=2,7=1024,8=3,38=5/8;
 8/6=4,10=90,11=11/1;
 11/6=1,8=1,9=11,15=111,16=1,31=1/1,2,10;
 10/6=1,31=1/2;
 7/7=1,10=1,25=1,30=1/1,2,3,16;
 1/7=10,10=4,18=10,26=3/3(-8);
 2/15=1,29=1/2;
 6/7=2,8=2,9=2,10=2,18=1,19=2,28=1/1;
 7/7=1,8=1,9=1,25=1,30=1,44=-1/16;
 99/12=1/99;
 --------------------------------------------------
 OH_AGE_TEABr_CO2_bind_opt_freq_TEA_relax_6_31Gdp_1
 --------------------------------------------------
 Symbolic Z-matrix:
 Charge =  0 Multiplicity = 1
 Zn                   0    -2.6268   -0.13713  -0.17597 
 O                    0    -1.20231  -1.38881  -0.96221 
 O                    0     0.79982   0.15005  -0.60825 
 O                    -1   -1.94049  -0.63788   1.72455 
 O                    -1   -0.37269   1.01087   1.91697 
 C                    -1   -1.06872   0.05737   2.35689 
 Zn                   0    -0.20528   1.86511  -0.06449 
 O                    -1   -1.63008   3.22081   0.54068 
 O                    -1   -3.34506   1.72518   0.7202 
 O                    -1   -1.08556   1.98476  -2.06075 
 O                    -1   -2.99376   0.73733  -2.01137 
 C                    -1   -2.81579   2.87056   0.84076 
 C                    -1   -2.15087   1.52281  -2.5591 
 H                    -1   -0.90808  -0.23463   3.41991 
 H                    -1   -3.46664   3.66873   1.26094 
 H                    -1   -2.38928   1.83636  -3.59889 
 C                    -1    2.59139   2.8597   -0.55114 
 C                    -1    3.70861   3.70782  -0.53735 
 C                    -1    3.56604   5.00673  -0.02115 
 C                    -1    2.30987   5.41502   0.45914 
 C                    -1    1.24091   4.5082    0.4104 
 N                    -1    1.38395   3.25577  -0.08258 
 H                    -1    4.41909   5.6904    0.00577 
 H                    -1    2.63016   1.83613  -0.93464 
 H                    -1    4.66543   3.35003  -0.92345 
 H                    -1    2.15477   6.41643   0.86647 
 H                    -1    0.23924   4.76357   0.76449 
 C                    -1   -4.7348   -1.98934   1.01851 
 C                    -1   -5.89393  -2.77545   1.08885 
 C                    -1   -6.7547   -2.81324  -0.02128 
 C                    -1   -6.42657  -2.06253  -1.16273 
 C                    -1   -5.2498   -1.29945  -1.15551 
 N                    -1   -4.42128  -1.26805  -0.08421 
 H                    -1   -7.66587  -3.41713   0.0031 
 H                    -1   -4.0254   -1.91717   1.84682 
 H                    -1   -6.11102  -3.34226   1.99667 
 H                    -1   -7.0675   -2.06191  -2.04688 
 H                    -1   -4.94024  -0.69138  -2.00924 
 H                    0     0.06609  -0.54231  -0.81145 
 H                    0     1.48905   0.13235  -1.31634 
 H                    0    -1.0648   -2.05416  -0.27395 
 C                    0     11.52114  -1.04687  -3.36945 
 C                    0     10.45967  -1.51976  -2.71101 
 C                    0     9.05418  -1.49025  -3.2354 
 O                    0     8.20645  -0.90333  -2.25617 
 C                    0     6.82272  -0.94616  -2.62038 
 C                    0     6.06739  -0.37256  -1.41562 
 C                    0     6.10789  -1.24284  -0.16296 
 O                    0     4.76107   0.15209  -1.65977 
 H                    0     12.52478  -1.12157  -2.96045 
 H                    0     11.42288  -0.57072  -4.34302 
 H                    0     10.58259  -1.98192  -1.73185 
 H                    0     8.71096  -2.51856  -3.44554 
 H                    0     9.00488  -0.92444  -4.1802 
 H                    0     6.51537  -1.96944  -2.85183 
 H                    0     6.63565  -0.31995  -3.50293 
 H                    0     6.64327   0.51659  -1.11746 
 H                    0     5.53055  -0.78205   0.63741 
 H                    0     7.13989  -1.40254   0.14651 
 N                    0     0.63162  -2.89345  -4.25762 
 C                    0     0.35033  -1.42199  -3.86543 
 C                    0    -0.22328  -0.50575  -4.94274 
 H                    0     1.30002  -1.02047  -3.50343 
 H                    0    -0.34505  -1.47381  -3.02122 
 H                    0    -0.22148   0.49632  -4.50326 
 H                    0     0.37436  -0.45531  -5.85478 
 H                    0    -1.25796  -0.7423   -5.20822 
 C                    0    -0.48373  -3.39406  -5.15716 
 C                    0    -0.39699  -4.85008  -5.61012 
 H                    0    -0.49493  -2.74144  -6.02851 
 H                    0    -1.40974  -3.21747  -4.60315 
 H                    0    -1.22872  -5.03067  -6.29877 
 H                    0     0.52687  -5.0671   -6.15286 
 H                    0    -0.49675  -5.56407  -4.78962 
 C                    0     0.60687  -3.72153  -2.96479 
 C                    0     1.63611  -3.34709  -1.90599 
 H                    0     0.74994  -4.75932  -3.27104 
 H                    0    -0.40323  -3.60012  -2.56526 
 H                    0     1.48815  -4.033    -1.06483 
 H                    0     2.66812  -3.45206  -2.24378 
 H                    0     1.49839  -2.33489  -1.52853 
 C                    0     2.01466  -3.05701  -4.89194 
 C                    0     2.20659  -2.48171  -6.29067 
 H                    0     2.21159  -4.13251  -4.89573 
 H                    0     2.72471  -2.5726   -4.21432 
 H                    0     3.21397  -2.7659   -6.61102 
 H                    0     1.504    -2.86907  -7.03515 
 H                    0     2.17183  -1.39152  -6.29515 
 Br                   0     5.34868  -3.07394  -0.34421 
 C                    0     3.8392   -0.44749  -2.54024 
 O                    0     2.71292   0.11839  -2.48812 
 O                    0     4.20606  -1.39543  -3.25677 
 

 GradGradGradGradGradGradGradGradGradGradGradGradGradGradGradGradGradGrad
 Berny optimization.
 Initialization pass.
 No Z-matrix variables, so optimization will use Cartesian coordinates.
 Trust Radius=3.00D-01 FncErr=1.00D-07 GrdErr=1.00D-06 EigMax=2.50D+02 EigMin=1.00D-04
 Number of steps in this run=    286 maximum allowed number of steps=    552.
 GradGradGradGradGradGradGradGradGradGradGradGradGradGradGradGradGradGrad

 Symmetry turned off by external request.
 Stoichiometry    C28H46BrN3O12Zn2
 Framework group  C1[X(C28H46BrN3O12Zn2)]
 Deg. of freedom   270
 Full point group                 C1      NOp   1
                          Input orientation:                          
 ---------------------------------------------------------------------
 Center     Atomic      Atomic             Coordinates (Angstroms)
 Number     Number       Type             X           Y           Z
 ---------------------------------------------------------------------
      1         30           0       -2.626802   -0.137134   -0.175972
      2          8           0       -1.202306   -1.388808   -0.962212
      3          8           0        0.799821    0.150048   -0.608254
      4          8           0       -1.940493   -0.637880    1.724552
      5          8           0       -0.372693    1.010875    1.916972
      6          6           0       -1.068724    0.057367    2.356892
      7         30           0       -0.205283    1.865114   -0.064494
      8          8           0       -1.630079    3.220806    0.540676
      9          8           0       -3.345064    1.725183    0.720202
     10          8           0       -1.085559    1.984761   -2.060749
     11          8           0       -2.993756    0.737325   -2.011366
     12          6           0       -2.815788    2.870560    0.840756
     13          6           0       -2.150867    1.522812   -2.559095
     14          1           0       -0.908079   -0.234626    3.419908
     15          1           0       -3.466636    3.668730    1.260937
     16          1           0       -2.389282    1.836355   -3.598888
     17          6           0        2.591387    2.859704   -0.551135
     18          6           0        3.708612    3.707815   -0.537348
     19          6           0        3.566043    5.006726   -0.021154
     20          6           0        2.309865    5.415023    0.459138
     21          6           0        1.240906    4.508199    0.410399
     22          7           0        1.383948    3.255771   -0.082584
     23          1           0        4.419088    5.690402    0.005770
     24          1           0        2.630158    1.836132   -0.934636
     25          1           0        4.665434    3.350028   -0.923448
     26          1           0        2.154774    6.416431    0.866473
     27          1           0        0.239236    4.763568    0.764493
     28          6           0       -4.734795   -1.989342    1.018511
     29          6           0       -5.893934   -2.775449    1.088845
     30          6           0       -6.754703   -2.813244   -0.021280
     31          6           0       -6.426568   -2.062530   -1.162730
     32          6           0       -5.249797   -1.299450   -1.155511
     33          7           0       -4.421278   -1.268045   -0.084209
     34          1           0       -7.665873   -3.417132    0.003100
     35          1           0       -4.025399   -1.917166    1.846823
     36          1           0       -6.111019   -3.342262    1.996669
     37          1           0       -7.067496   -2.061912   -2.046875
     38          1           0       -4.940236   -0.691384   -2.009240
     39          1           0        0.066089   -0.542313   -0.811449
     40          1           0        1.489047    0.132349   -1.316335
     41          1           0       -1.064799   -2.054155   -0.273948
     42          6           0       11.521136   -1.046866   -3.369447
     43          6           0       10.459665   -1.519760   -2.711005
     44          6           0        9.054175   -1.490251   -3.235397
     45          8           0        8.206454   -0.903328   -2.256174
     46          6           0        6.822724   -0.946158   -2.620375
     47          6           0        6.067388   -0.372561   -1.415618
     48          6           0        6.107886   -1.242841   -0.162958
     49          8           0        4.761071    0.152093   -1.659774
     50          1           0       12.524781   -1.121571   -2.960450
     51          1           0       11.422878   -0.570718   -4.343021
     52          1           0       10.582593   -1.981915   -1.731845
     53          1           0        8.710965   -2.518560   -3.445544
     54          1           0        9.004884   -0.924435   -4.180201
     55          1           0        6.515372   -1.969440   -2.851831
     56          1           0        6.635652   -0.319952   -3.502926
     57          1           0        6.643265    0.516585   -1.117460
     58          1           0        5.530552   -0.782053    0.637405
     59          1           0        7.139889   -1.402542    0.146507
     60          7           0        0.631623   -2.893450   -4.257623
     61          6           0        0.350331   -1.421993   -3.865430
     62          6           0       -0.223280   -0.505745   -4.942742
     63          1           0        1.300019   -1.020471   -3.503427
     64          1           0       -0.345049   -1.473808   -3.021223
     65          1           0       -0.221479    0.496315   -4.503261
     66          1           0        0.374358   -0.455310   -5.854784
     67          1           0       -1.257955   -0.742296   -5.208223
     68          6           0       -0.483729   -3.394064   -5.157163
     69          6           0       -0.396991   -4.850080   -5.610124
     70          1           0       -0.494927   -2.741437   -6.028509
     71          1           0       -1.409735   -3.217472   -4.603150
     72          1           0       -1.228723   -5.030666   -6.298771
     73          1           0        0.526867   -5.067102   -6.152861
     74          1           0       -0.496747   -5.564069   -4.789618
     75          6           0        0.606870   -3.721528   -2.964789
     76          6           0        1.636110   -3.347094   -1.905994
     77          1           0        0.749939   -4.759323   -3.271045
     78          1           0       -0.403226   -3.600115   -2.565257
     79          1           0        1.488147   -4.033003   -1.064828
     80          1           0        2.668124   -3.452058   -2.243781
     81          1           0        1.498394   -2.334891   -1.528526
     82          6           0        2.014662   -3.057011   -4.891941
     83          6           0        2.206589   -2.481709   -6.290665
     84          1           0        2.211587   -4.132509   -4.895726
     85          1           0        2.724706   -2.572604   -4.214320
     86          1           0        3.213967   -2.765903   -6.611017
     87          1           0        1.503995   -2.869069   -7.035153
     88          1           0        2.171826   -1.391519   -6.295154
     89         35           0        5.348679   -3.073936   -0.344210
     90          6           0        3.839198   -0.447485   -2.540235
     91          8           0        2.712917    0.118393   -2.488116
     92          8           0        4.206060   -1.395428   -3.256765
 ---------------------------------------------------------------------
 Rotational constants (GHZ):           0.0700544           0.0310156           0.0257521
 General basis read from cards:  (5D, 7F)
 ======================================================================================================
                                       Pseudopotential Parameters
 ======================================================================================================
  Center     Atomic      Valence      Angular      Power
  Number     Number     Electrons     Momentum     of R      Exponent        Coefficient   SO-Coeffient
 ======================================================================================================
    1         30           12
                                      F and up 
                                                     1      386.7379660      -18.00000000    0.00000000
                                                     2       72.8587359     -124.35274030    0.00000000
                                                     2       15.9066170      -30.66018220    0.00000000
                                                     2        4.3502340      -10.63589890    0.00000000
                                                     2        1.2842199       -0.76836230    0.00000000
                                      S - F
                                                     0       19.0867858        3.00000000    0.00000000
                                                     1        5.0231080       22.52342250    0.00000000
                                                     2        1.2701744       48.44659420    0.00000000
                                                     2        1.0671287      -44.55601190    0.00000000
                                                     2        0.9264190       12.99839580    0.00000000
                                      P - F
                                                     0       43.4927750        5.00000000    0.00000000
                                                     1       20.8692669       20.74355890    0.00000000
                                                     2       21.7118378       90.30271580    0.00000000
                                                     2        6.3616915       74.66103160    0.00000000
                                                     2        1.2291195        9.88944240    0.00000000
                                      D - F
                                                     2       13.5851800       -4.84903590    0.00000000
                                                     2        9.8373050        3.69133790    0.00000000
                                                     2        0.8373113       -0.50373190    0.00000000
    2          8
                                   No pseudopotential on this center.
    3          8
                                   No pseudopotential on this center.
    4          8
                                   No pseudopotential on this center.
    5          8
                                   No pseudopotential on this center.
    6          6
                                   No pseudopotential on this center.
    7         30           12
                                      F and up 
                                                     1      386.7379660      -18.00000000    0.00000000
                                                     2       72.8587359     -124.35274030    0.00000000
                                                     2       15.9066170      -30.66018220    0.00000000
                                                     2        4.3502340      -10.63589890    0.00000000
                                                     2        1.2842199       -0.76836230    0.00000000
                                      S - F
                                                     0       19.0867858        3.00000000    0.00000000
                                                     1        5.0231080       22.52342250    0.00000000
                                                     2        1.2701744       48.44659420    0.00000000
                                                     2        1.0671287      -44.55601190    0.00000000
                                                     2        0.9264190       12.99839580    0.00000000
                                      P - F
                                                     0       43.4927750        5.00000000    0.00000000
                                                     1       20.8692669       20.74355890    0.00000000
                                                     2       21.7118378       90.30271580    0.00000000
                                                     2        6.3616915       74.66103160    0.00000000
                                                     2        1.2291195        9.88944240    0.00000000
                                      D - F
                                                     2       13.5851800       -4.84903590    0.00000000
                                                     2        9.8373050        3.69133790    0.00000000
                                                     2        0.8373113       -0.50373190    0.00000000
    8          8
                                   No pseudopotential on this center.
    9          8
                                   No pseudopotential on this center.
   10          8
                                   No pseudopotential on this center.
   11          8
                                   No pseudopotential on this center.
   12          6
                                   No pseudopotential on this center.
   13          6
                                   No pseudopotential on this center.
   14          1
                                   No pseudopotential on this center.
   15          1
                                   No pseudopotential on this center.
   16          1
                                   No pseudopotential on this center.
   17          6
                                   No pseudopotential on this center.
   18          6
                                   No pseudopotential on this center.
   19          6
                                   No pseudopotential on this center.
   20          6
                                   No pseudopotential on this center.
   21          6
                                   No pseudopotential on this center.
   22          7
                                   No pseudopotential on this center.
   23          1
                                   No pseudopotential on this center.
   24          1
                                   No pseudopotential on this center.
   25          1
                                   No pseudopotential on this center.
   26          1
                                   No pseudopotential on this center.
   27          1
                                   No pseudopotential on this center.
   28          6
                                   No pseudopotential on this center.
   29          6
                                   No pseudopotential on this center.
   30          6
                                   No pseudopotential on this center.
   31          6
                                   No pseudopotential on this center.
   32          6
                                   No pseudopotential on this center.
   33          7
                                   No pseudopotential on this center.
   34          1
                                   No pseudopotential on this center.
   35          1
                                   No pseudopotential on this center.
   36          1
                                   No pseudopotential on this center.
   37          1
                                   No pseudopotential on this center.
   38          1
                                   No pseudopotential on this center.
   39          1
                                   No pseudopotential on this center.
   40          1
                                   No pseudopotential on this center.
   41          1
                                   No pseudopotential on this center.
   42          6
                                   No pseudopotential on this center.
   43          6
                                   No pseudopotential on this center.
   44          6
                                   No pseudopotential on this center.
   45          8
                                   No pseudopotential on this center.
   46          6
                                   No pseudopotential on this center.
   47          6
                                   No pseudopotential on this center.
   48          6
                                   No pseudopotential on this center.
   49          8
                                   No pseudopotential on this center.
   50          1
                                   No pseudopotential on this center.
   51          1
                                   No pseudopotential on this center.
   52          1
                                   No pseudopotential on this center.
   53          1
                                   No pseudopotential on this center.
   54          1
                                   No pseudopotential on this center.
   55          1
                                   No pseudopotential on this center.
   56          1
                                   No pseudopotential on this center.
   57          1
                                   No pseudopotential on this center.
   58          1
                                   No pseudopotential on this center.
   59          1
                                   No pseudopotential on this center.
   60          7
                                   No pseudopotential on this center.
   61          6
                                   No pseudopotential on this center.
   62          6
                                   No pseudopotential on this center.
   63          1
                                   No pseudopotential on this center.
   64          1
                                   No pseudopotential on this center.
   65          1
                                   No pseudopotential on this center.
   66          1
                                   No pseudopotential on this center.
   67          1
                                   No pseudopotential on this center.
   68          6
                                   No pseudopotential on this center.
   69          6
                                   No pseudopotential on this center.
   70          1
                                   No pseudopotential on this center.
   71          1
                                   No pseudopotential on this center.
   72          1
                                   No pseudopotential on this center.
   73          1
                                   No pseudopotential on this center.
   74          1
                                   No pseudopotential on this center.
   75          6
                                   No pseudopotential on this center.
   76          6
                                   No pseudopotential on this center.
   77          1
                                   No pseudopotential on this center.
   78          1
                                   No pseudopotential on this center.
   79          1
                                   No pseudopotential on this center.
   80          1
                                   No pseudopotential on this center.
   81          1
                                   No pseudopotential on this center.
   82          6
                                   No pseudopotential on this center.
   83          6
                                   No pseudopotential on this center.
   84          1
                                   No pseudopotential on this center.
   85          1
                                   No pseudopotential on this center.
   86          1
                                   No pseudopotential on this center.
   87          1
                                   No pseudopotential on this center.
   88          1
                                   No pseudopotential on this center.
   89         35
                                   No pseudopotential on this center.
   90          6
                                   No pseudopotential on this center.
   91          8
                                   No pseudopotential on this center.
   92          8
                                   No pseudopotential on this center.
 ======================================================================================================
  1072 basis functions,  1863 primitive gaussians,  1121 cartesian basis functions
   195 alpha electrons      195 beta electrons
       nuclear repulsion energy      7422.5608255642 Hartrees.
 NAtoms=   92 NActive=   92 NUniq=   92 SFac= 1.00D+00 NAtFMM=   60 NAOKFM=T Big=T
 Integral buffers will be    131072 words long.
 Raffenetti 2 integral format.
 Two-electron integral symmetry is turned off.
 One-electron integrals computed using PRISM.
   1 Symmetry operations used in ECPInt.
 ECPInt:  NShTT=   71631 NPrTT=  319784 LenC2=   51360 LenP2D=  131008.
 LDataN:  DoStor=T MaxTD1= 5 Len=  102
 NBasis=  1072 RedAO= T EigKep=  3.76D-06  NBF=  1072
 NBsUse=  1072 1.00D-06 EigRej= -1.00D+00 NBFU=  1072
 ExpMin= 3.50D-02 ExpMax= 5.74D+05 ExpMxC= 5.74D+03 IAcc=3 IRadAn=         5 AccDes= 0.00D+00
 Harris functional with IExCor=  402 and IRadAn=       5 diagonalized for initial guess.
 HarFok:  IExCor=  402 AccDes= 0.00D+00 IRadAn=         5 IDoV= 1 UseB2=F ITyADJ=14
 ICtDFT=  3500011 ScaDFX=  1.000000  1.000000  1.000000  1.000000
 FoFCou: FMM=F IPFlag=           0 FMFlag=      100000 FMFlg1=        2001
         NFxFlg=           0 DoJE=T BraDBF=F KetDBF=T FulRan=T
         wScrn=  0.000000 ICntrl=       500 IOpCl=  0 I1Cent=   200000004 NGrid=           0
         NMat0=    1 NMatS0=      1 NMatT0=    0 NMatD0=    1 NMtDS0=    0 NMtDT0=    0
 Symmetry not used in FoFCou.
 Gradient too large for Newton-Raphson -- use scaled steepest descent instead.
     Accept linear search using points  2 and  3.
 Gradient too large for Newton-Raphson -- use scaled steepest descent instead.
     Accept linear search using points  2 and  3.
 Gradient too large for Newton-Raphson -- use scaled steepest descent instead.
 Gradient too large for Newton-Raphson -- use scaled steepest descent instead.
     Accept linear search using points  1 and  2.
 Gradient too large for Newton-Raphson -- use scaled steepest descent instead.
 LinEq1:  Iter=  0 NonCon=     1 RMS=1.78D-05 Max=1.32D-03 NDo=     1
 AX will form     1 AO Fock derivatives at one time.
 LinEq1:  Iter=  1 NonCon=     1 RMS=1.62D-05 Max=7.49D-04 NDo=     1
 LinEq1:  Iter=  2 NonCon=     1 RMS=9.76D-06 Max=5.89D-04 NDo=     1
 LinEq1:  Iter=  3 NonCon=     1 RMS=5.40D-06 Max=2.75D-04 NDo=     1
 LinEq1:  Iter=  4 NonCon=     1 RMS=2.77D-06 Max=1.98D-04 NDo=     1
 LinEq1:  Iter=  5 NonCon=     1 RMS=2.01D-06 Max=1.23D-04 NDo=     1
 LinEq1:  Iter=  6 NonCon=     1 RMS=1.52D-06 Max=1.19D-04 NDo=     1
 LinEq1:  Iter=  7 NonCon=     1 RMS=9.21D-07 Max=7.70D-05 NDo=     1
 LinEq1:  Iter=  8 NonCon=     1 RMS=7.89D-07 Max=6.72D-05 NDo=     1
 LinEq1:  Iter=  9 NonCon=     1 RMS=5.62D-07 Max=4.68D-05 NDo=     1
 LinEq1:  Iter= 10 NonCon=     1 RMS=3.53D-07 Max=4.08D-05 NDo=     1
 LinEq1:  Iter= 11 NonCon=     1 RMS=2.74D-07 Max=3.06D-05 NDo=     1
 LinEq1:  Iter= 12 NonCon=     1 RMS=1.34D-07 Max=1.01D-05 NDo=     1
 LinEq1:  Iter= 13 NonCon=     1 RMS=1.18D-07 Max=1.09D-05 NDo=     1
 LinEq1:  Iter= 14 NonCon=     1 RMS=7.90D-08 Max=6.85D-06 NDo=     1
 LinEq1:  Iter= 15 NonCon=     1 RMS=4.29D-08 Max=3.41D-06 NDo=     1
 LinEq1:  Iter= 16 NonCon=     1 RMS=2.54D-08 Max=2.47D-06 NDo=     1
 LinEq1:  Iter= 17 NonCon=     1 RMS=1.47D-08 Max=2.11D-06 NDo=     1
 LinEq1:  Iter= 18 NonCon=     1 RMS=9.29D-09 Max=1.34D-06 NDo=     1
 LinEq1:  Iter= 19 NonCon=     1 RMS=6.04D-09 Max=6.55D-07 NDo=     1
 LinEq1:  Iter= 20 NonCon=     0 RMS=3.81D-09 Max=2.90D-07 NDo=     1
 Linear equations converged to 5.848D-08 5.848D-07 after    20 iterations.
     Accept linear search using points  1 and  2.
     Minimum is close to point  2 DX= -3.07D-04 DF= -3.64D-12 DXR=  3.07D-04 DFR=  9.74D-08 which will be used.
 SCF Done:  E(RB3LYP) =  -4864.57326342     a.u. after    7 cycles
            Convg  =    0.4668D-05                    37 Fock formations.
              S**2 =  0.0000                  -V/T =  1.9832
 DoSCS=F DFT=T ScalE2(SS,OS)=  1.000000  1.000000
 Range of M.O.s used for correlation:     1  1072
 NBasis=  1072 NAE=   195 NBE=   195 NFC=     0 NFV=     0
 NROrb=   1072 NOA=   195 NOB=   195 NVA=   877 NVB=   877

 **** Warning!!: The largest alpha MO coefficient is  0.66725053D+02

 PrsmSu:  requested number of processors reduced to:  47 ShMem   1 Linda.
   1 Symmetry operations used in ECPInt.
 ECPInt:  NShTT=   71631 NPrTT=  319784 LenC2=   51360 LenP2D=  131008.
 LDataN:  DoStor=T MaxTD1= 6 Len=  172
 Number of processors reduced to   6 by ecpmxn.
 Symmetrizing basis deriv contribution to polar:
 IMax=3 JMax=2 DiffMx= 0.00D+00
 G2DrvN: will do    47 centers at a time, making    2 passes.
 Calling FoFCou, ICntrl=  3107 FMM=T I1Cent=   0 AccDes= 0.00D+00.
 Calling FoFCou, ICntrl=  3107 FMM=T I1Cent=   0 AccDes= 0.00D+00.
 End of G2Drv F.D. properties file   721 does not exist.
 End of G2Drv F.D. properties file   722 does not exist.
 End of G2Drv F.D. properties file   788 does not exist.
          IDoAtm=11100010000000000000000000000000000000111111111111
          IDoAtm=111111111111111111111111111111111111111111
          Differentiating once with respect to electric field.
                with respect to dipole field.
          Differentiating once with respect to nuclear coordinates.
 CalDSu exits because no D1Ps are significant.
          There are   177 degrees of freedom in the 1st order CPHF.  IDoFFX=6 NUNeed=     3.
    177 vectors produced by pass  0 Test12= 1.71D-13 1.00D-09 XBig12= 4.14D+02 6.12D+00.
 AX will form    96 AO Fock derivatives at one time.
    177 vectors produced by pass  1 Test12= 1.71D-13 1.00D-09 XBig12= 1.59D+02 4.40D+00.
    177 vectors produced by pass  2 Test12= 1.71D-13 1.00D-09 XBig12= 1.40D+01 5.22D-01.
    177 vectors produced by pass  3 Test12= 1.71D-13 1.00D-09 XBig12= 3.52D-01 6.61D-02.
    177 vectors produced by pass  4 Test12= 1.71D-13 1.00D-09 XBig12= 4.70D-03 1.12D-02.
    160 vectors produced by pass  5 Test12= 1.71D-13 1.00D-09 XBig12= 4.35D-05 1.83D-03.
     51 vectors produced by pass  6 Test12= 1.71D-13 1.00D-09 XBig12= 2.25D-07 9.94D-05.
     15 vectors produced by pass  7 Test12= 1.71D-13 1.00D-09 XBig12= 9.08D-10 3.89D-06.
      6 vectors produced by pass  8 Test12= 1.71D-13 1.00D-09 XBig12= 4.36D-12 2.53D-07.
      3 vectors produced by pass  9 Test12= 1.71D-13 1.00D-09 XBig12= 1.68D-14 1.67D-08.
 InvSVY:  IOpt=1 It=  1 EMax= 1.42D-14
 Solved reduced A of dimension  1120 with   177 vectors.
 Isotropic polarizability for W=    0.000000      463.80 Bohr**3.
 End of Minotr F.D. properties file   721 does not exist.
 End of Minotr F.D. properties file   722 does not exist.
 End of Minotr F.D. properties file   788 does not exist.

 **********************************************************************

            Population analysis using the SCF Density.

 **********************************************************************

 Alpha  occ. eigenvalues -- -482.64863 -61.73283 -56.30244 -56.29913 -56.29894
 Alpha  occ. eigenvalues --  -19.14556 -19.14453 -19.12212 -19.12118 -19.11736
 Alpha  occ. eigenvalues --  -19.11723 -19.11590 -19.11386 -19.11252 -19.08246
 Alpha  occ. eigenvalues --  -19.08094 -19.07634 -14.46354 -14.37744 -14.36735
 Alpha  occ. eigenvalues --  -10.30044 -10.28837 -10.28334 -10.28196 -10.26449
 Alpha  occ. eigenvalues --  -10.24983 -10.24972 -10.24952 -10.24137 -10.23748
 Alpha  occ. eigenvalues --  -10.23738 -10.23631 -10.23136 -10.22930 -10.22473
 Alpha  occ. eigenvalues --  -10.22434 -10.22293 -10.22211 -10.22207 -10.22130
 Alpha  occ. eigenvalues --  -10.21409 -10.21108 -10.20725 -10.20357 -10.19016
 Alpha  occ. eigenvalues --  -10.18947 -10.18215 -10.18096  -8.50303  -6.51884
 Alpha  occ. eigenvalues --   -6.50680  -6.50671  -2.63846  -2.63510  -2.63503
 Alpha  occ. eigenvalues --   -2.62541  -2.62541  -1.06487  -1.04377  -1.03886
 Alpha  occ. eigenvalues --   -1.03463  -1.02772  -1.01353  -0.97632  -0.97008
 Alpha  occ. eigenvalues --   -0.96831  -0.96077  -0.95812  -0.95578  -0.95311
 Alpha  occ. eigenvalues --   -0.93746  -0.89894  -0.82784  -0.81385  -0.81171
 Alpha  occ. eigenvalues --   -0.80014  -0.79766  -0.78861  -0.78635  -0.78174
 Alpha  occ. eigenvalues --   -0.77133  -0.74843  -0.73157  -0.68617  -0.68182
 Alpha  occ. eigenvalues --   -0.65985  -0.65667  -0.65650  -0.65224  -0.64330
 Alpha  occ. eigenvalues --   -0.64083  -0.63748  -0.60282  -0.60211  -0.59515
 Alpha  occ. eigenvalues --   -0.59043  -0.58478  -0.58417  -0.58029  -0.57770
 Alpha  occ. eigenvalues --   -0.57581  -0.57099  -0.56900  -0.56685  -0.56518
 Alpha  occ. eigenvalues --   -0.56201  -0.56120  -0.54782  -0.53750  -0.53583
 Alpha  occ. eigenvalues --   -0.53178  -0.53015  -0.52014  -0.51087  -0.50422
 Alpha  occ. eigenvalues --   -0.50373  -0.49649  -0.49218  -0.49150  -0.48987
 Alpha  occ. eigenvalues --   -0.47848  -0.47496  -0.47105  -0.46690  -0.46479
 Alpha  occ. eigenvalues --   -0.46312  -0.45978  -0.45899  -0.45207  -0.45111
 Alpha  occ. eigenvalues --   -0.45052  -0.44443  -0.44133  -0.43799  -0.43550
 Alpha  occ. eigenvalues --   -0.43346  -0.43074  -0.42892  -0.42695  -0.42323
 Alpha  occ. eigenvalues --   -0.42073  -0.41958  -0.41759  -0.41172  -0.41002
 Alpha  occ. eigenvalues --   -0.40923  -0.40845  -0.40763  -0.40522  -0.40196
 Alpha  occ. eigenvalues --   -0.39868  -0.39589  -0.39259  -0.38886  -0.38784
 Alpha  occ. eigenvalues --   -0.38465  -0.38070  -0.37829  -0.37631  -0.37225
 Alpha  occ. eigenvalues --   -0.37143  -0.37110  -0.36477  -0.35955  -0.35478
 Alpha  occ. eigenvalues --   -0.35188  -0.34644  -0.33117  -0.32172  -0.31797
 Alpha  occ. eigenvalues --   -0.31509  -0.31451  -0.30376  -0.30010  -0.29349
 Alpha  occ. eigenvalues --   -0.28756  -0.28182  -0.27869  -0.27813  -0.27664
 Alpha  occ. eigenvalues --   -0.27493  -0.27189  -0.26838  -0.26369  -0.26088
 Alpha  occ. eigenvalues --   -0.25887  -0.25795  -0.25752  -0.25612  -0.25391
 Alpha  occ. eigenvalues --   -0.24983  -0.24761  -0.24093  -0.23833  -0.22045
 Alpha virt. eigenvalues --   -0.06346  -0.05000  -0.04258  -0.02747  -0.02257
 Alpha virt. eigenvalues --   -0.00878  -0.00718  -0.00197  -0.00113   0.00237
 Alpha virt. eigenvalues --    0.00605   0.01252   0.01483   0.01852   0.02069
 Alpha virt. eigenvalues --    0.02360   0.02383   0.02519   0.02694   0.02833
 Alpha virt. eigenvalues --    0.02950   0.03182   0.03561   0.03585   0.03776
 Alpha virt. eigenvalues --    0.03899   0.04165   0.04347   0.04532   0.04601
 Alpha virt. eigenvalues --    0.04986   0.05211   0.05406   0.05562   0.05778
 Alpha virt. eigenvalues --    0.05915   0.06107   0.06164   0.06443   0.06704
 Alpha virt. eigenvalues --    0.06836   0.06987   0.07145   0.07308   0.07409
 Alpha virt. eigenvalues --    0.07594   0.07857   0.08051   0.08207   0.08456
 Alpha virt. eigenvalues --    0.08713   0.08914   0.09018   0.09091   0.09236
 Alpha virt. eigenvalues --    0.09447   0.09484   0.09669   0.09795   0.10000
 Alpha virt. eigenvalues --    0.10252   0.10459   0.10636   0.10803   0.10934
 Alpha virt. eigenvalues --    0.11173   0.11212   0.11333   0.11523   0.11897
 Alpha virt. eigenvalues --    0.11992   0.12283   0.12311   0.12592   0.12712
 Alpha virt. eigenvalues --    0.12930   0.13097   0.13249   0.13364   0.13551
 Alpha virt. eigenvalues --    0.13793   0.13889   0.13994   0.14392   0.14505
 Alpha virt. eigenvalues --    0.14658   0.14704   0.14992   0.15144   0.15388
 Alpha virt. eigenvalues --    0.15435   0.15742   0.15892   0.16127   0.16171
 Alpha virt. eigenvalues --    0.16339   0.16453   0.16797   0.16827   0.17098
 Alpha virt. eigenvalues --    0.17218   0.17387   0.17517   0.17678   0.17819
 Alpha virt. eigenvalues --    0.17995   0.18088   0.18127   0.18296   0.18447
 Alpha virt. eigenvalues --    0.18461   0.18764   0.18768   0.19077   0.19303
 Alpha virt. eigenvalues --    0.19517   0.19697   0.19736   0.19878   0.19960
 Alpha virt. eigenvalues --    0.20293   0.20328   0.20521   0.20830   0.20967
 Alpha virt. eigenvalues --    0.21098   0.21293   0.21427   0.21630   0.21715
 Alpha virt. eigenvalues --    0.22043   0.22188   0.22419   0.22584   0.22629
 Alpha virt. eigenvalues --    0.22745   0.23060   0.23152   0.23249   0.23396
 Alpha virt. eigenvalues --    0.23550   0.23729   0.23922   0.24087   0.24468
 Alpha virt. eigenvalues --    0.24638   0.24745   0.24908   0.25153   0.25227
 Alpha virt. eigenvalues --    0.25326   0.25465   0.25560   0.25718   0.25788
 Alpha virt. eigenvalues --    0.26059   0.26304   0.26461   0.26585   0.26751
 Alpha virt. eigenvalues --    0.26910   0.27068   0.27194   0.27345   0.27548
 Alpha virt. eigenvalues --    0.27712   0.27802   0.27960   0.28138   0.28389
 Alpha virt. eigenvalues --    0.28524   0.28762   0.29094   0.29434   0.29482
 Alpha virt. eigenvalues --    0.29666   0.29948   0.30099   0.30241   0.30462
 Alpha virt. eigenvalues --    0.30686   0.30906   0.31002   0.31219   0.31243
 Alpha virt. eigenvalues --    0.31491   0.31651   0.31715   0.31866   0.32062
 Alpha virt. eigenvalues --    0.32413   0.32493   0.32731   0.32976   0.33103
 Alpha virt. eigenvalues --    0.33248   0.33569   0.33607   0.33840   0.34211
 Alpha virt. eigenvalues --    0.34543   0.34647   0.35106   0.35387   0.35690
 Alpha virt. eigenvalues --    0.36136   0.36252   0.36372   0.36504   0.36828
 Alpha virt. eigenvalues --    0.37436   0.37614   0.37694   0.37822   0.38007
 Alpha virt. eigenvalues --    0.38205   0.38443   0.39088   0.39264   0.39543
 Alpha virt. eigenvalues --    0.39714   0.39907   0.40004   0.40181   0.40406
 Alpha virt. eigenvalues --    0.40592   0.40810   0.40954   0.41266   0.41675
 Alpha virt. eigenvalues --    0.41858   0.42093   0.42310   0.42632   0.43102
 Alpha virt. eigenvalues --    0.43310   0.43569   0.43784   0.44023   0.44383
 Alpha virt. eigenvalues --    0.44526   0.44793   0.45277   0.45611   0.45859
 Alpha virt. eigenvalues --    0.46157   0.46738   0.46919   0.47372   0.47670
 Alpha virt. eigenvalues --    0.47847   0.47979   0.48320   0.48547   0.48825
 Alpha virt. eigenvalues --    0.49273   0.49738   0.49879   0.50043   0.50269
 Alpha virt. eigenvalues --    0.51323   0.51544   0.51906   0.52478   0.53038
 Alpha virt. eigenvalues --    0.53312   0.53858   0.53995   0.54200   0.54334
 Alpha virt. eigenvalues --    0.54815   0.55363   0.55593   0.55794   0.56445
 Alpha virt. eigenvalues --    0.57045   0.57398   0.57715   0.58250   0.58797
 Alpha virt. eigenvalues --    0.59004   0.59425   0.60037   0.60875   0.61532
 Alpha virt. eigenvalues --    0.62005   0.62668   0.63181   0.63692   0.64505
 Alpha virt. eigenvalues --    0.64760   0.65211   0.65588   0.66818   0.67161
 Alpha virt. eigenvalues --    0.67613   0.67855   0.68365   0.68673   0.68684
 Alpha virt. eigenvalues --    0.69264   0.69675   0.70000   0.70310   0.70630
 Alpha virt. eigenvalues --    0.70788   0.71329   0.71823   0.72159   0.72201
 Alpha virt. eigenvalues --    0.72591   0.72965   0.73363   0.73827   0.74090
 Alpha virt. eigenvalues --    0.74362   0.75106   0.75280   0.75669   0.75956
 Alpha virt. eigenvalues --    0.76637   0.76995   0.77281   0.77952   0.78272
 Alpha virt. eigenvalues --    0.78643   0.79110   0.79507   0.79802   0.80997
 Alpha virt. eigenvalues --    0.81204   0.81719   0.81886   0.82389   0.83087
 Alpha virt. eigenvalues --    0.83485   0.84045   0.84439   0.85031   0.85238
 Alpha virt. eigenvalues --    0.86428   0.86670   0.86912   0.87077   0.88044
 Alpha virt. eigenvalues --    0.88284   0.88518   0.88991   0.89644   0.89748
 Alpha virt. eigenvalues --    0.90126   0.90511   0.90696   0.90881   0.91355
 Alpha virt. eigenvalues --    0.91865   0.91992   0.92145   0.93051   0.93127
 Alpha virt. eigenvalues --    0.93391   0.94113   0.94301   0.94556   0.95072
 Alpha virt. eigenvalues --    0.95336   0.95879   0.96111   0.96264   0.96785
 Alpha virt. eigenvalues --    0.96967   0.97590   0.97906   0.98527   0.98621
 Alpha virt. eigenvalues --    0.99205   0.99420   0.99748   1.00264   1.00707
 Alpha virt. eigenvalues --    1.00805   1.01294   1.01822   1.02140   1.02617
 Alpha virt. eigenvalues --    1.02877   1.03145   1.03525   1.04084   1.04383
 Alpha virt. eigenvalues --    1.04813   1.05144   1.05562   1.05956   1.06412
 Alpha virt. eigenvalues --    1.07017   1.07397   1.07555   1.07750   1.08102
 Alpha virt. eigenvalues --    1.08659   1.09510   1.09825   1.10212   1.10490
 Alpha virt. eigenvalues --    1.11057   1.11443   1.11634   1.11980   1.12443
 Alpha virt. eigenvalues --    1.12852   1.13344   1.13563   1.14094   1.14611
 Alpha virt. eigenvalues --    1.15211   1.15677   1.16120   1.16775   1.17020
 Alpha virt. eigenvalues --    1.17640   1.18283   1.18619   1.18712   1.18817
 Alpha virt. eigenvalues --    1.19224   1.19439   1.19978   1.20220   1.20698
 Alpha virt. eigenvalues --    1.21131   1.21409   1.22101   1.22643   1.23098
 Alpha virt. eigenvalues --    1.23764   1.24038   1.24771   1.25422   1.25725
 Alpha virt. eigenvalues --    1.26026   1.26231   1.26554   1.26836   1.27324
 Alpha virt. eigenvalues --    1.28042   1.28673   1.29198   1.29502   1.29844
 Alpha virt. eigenvalues --    1.30256   1.30648   1.31170   1.31868   1.32088
 Alpha virt. eigenvalues --    1.32446   1.33111   1.33398   1.34007   1.34640
 Alpha virt. eigenvalues --    1.34947   1.35691   1.35955   1.36639   1.36795
 Alpha virt. eigenvalues --    1.37337   1.37445   1.37884   1.38295   1.38460
 Alpha virt. eigenvalues --    1.38956   1.39570   1.39925   1.40074   1.40180
 Alpha virt. eigenvalues --    1.40395   1.40644   1.41476   1.41763   1.42155
 Alpha virt. eigenvalues --    1.42519   1.42793   1.43236   1.43959   1.44657
 Alpha virt. eigenvalues --    1.44997   1.45299   1.45606   1.45691   1.46164
 Alpha virt. eigenvalues --    1.46811   1.47257   1.47414   1.48040   1.48785
 Alpha virt. eigenvalues --    1.49089   1.49352   1.49853   1.50106   1.50315
 Alpha virt. eigenvalues --    1.50814   1.51466   1.51775   1.52366   1.53201
 Alpha virt. eigenvalues --    1.54195   1.54585   1.55090   1.55480   1.55988
 Alpha virt. eigenvalues --    1.56441   1.57646   1.58073   1.58486   1.59055
 Alpha virt. eigenvalues --    1.59405   1.60346   1.60677   1.61333   1.61379
 Alpha virt. eigenvalues --    1.62076   1.62716   1.63425   1.63685   1.64094
 Alpha virt. eigenvalues --    1.64592   1.65230   1.65372   1.65959   1.66251
 Alpha virt. eigenvalues --    1.66951   1.67232   1.68373   1.69129   1.69689
 Alpha virt. eigenvalues --    1.70616   1.71930   1.72228   1.72696   1.73082
 Alpha virt. eigenvalues --    1.73820   1.74245   1.74708   1.75335   1.75528
 Alpha virt. eigenvalues --    1.77784   1.78035   1.78779   1.79731   1.80284
 Alpha virt. eigenvalues --    1.80723   1.80777   1.81961   1.82245   1.82459
 Alpha virt. eigenvalues --    1.83305   1.83347   1.83778   1.83936   1.84228
 Alpha virt. eigenvalues --    1.84543   1.84858   1.85201   1.85278   1.85776
 Alpha virt. eigenvalues --    1.86320   1.87125   1.87656   1.88075   1.88504
 Alpha virt. eigenvalues --    1.88878   1.89211   1.89887   1.89967   1.90380
 Alpha virt. eigenvalues --    1.90758   1.91104   1.91942   1.92118   1.92209
 Alpha virt. eigenvalues --    1.92701   1.93125   1.93184   1.93508   1.93846
 Alpha virt. eigenvalues --    1.94241   1.94366   1.94910   1.94974   1.95305
 Alpha virt. eigenvalues --    1.95865   1.96094   1.96434   1.96577   1.97032
 Alpha virt. eigenvalues --    1.97151   1.97484   1.97798   1.98283   1.98394
 Alpha virt. eigenvalues --    1.98733   1.98835   1.99282   1.99638   2.00476
 Alpha virt. eigenvalues --    2.00512   2.00812   2.01271   2.01533   2.01676
 Alpha virt. eigenvalues --    2.02053   2.02446   2.02889   2.03142   2.03388
 Alpha virt. eigenvalues --    2.03859   2.04087   2.04386   2.04740   2.05245
 Alpha virt. eigenvalues --    2.05726   2.05884   2.06354   2.06842   2.07379
 Alpha virt. eigenvalues --    2.08051   2.08751   2.09503   2.09999   2.10118
 Alpha virt. eigenvalues --    2.10446   2.10898   2.11270   2.11356   2.11596
 Alpha virt. eigenvalues --    2.11958   2.12127   2.12362   2.13136   2.13392
 Alpha virt. eigenvalues --    2.13617   2.13768   2.14045   2.14290   2.14598
 Alpha virt. eigenvalues --    2.14960   2.15167   2.15900   2.16047   2.16759
 Alpha virt. eigenvalues --    2.17103   2.17755   2.18091   2.18689   2.19344
 Alpha virt. eigenvalues --    2.20283   2.20484   2.20923   2.21766   2.21842
 Alpha virt. eigenvalues --    2.22599   2.23134   2.23881   2.25322   2.25932
 Alpha virt. eigenvalues --    2.26346   2.26506   2.26634   2.27045   2.27288
 Alpha virt. eigenvalues --    2.27504   2.28018   2.28321   2.28739   2.29022
 Alpha virt. eigenvalues --    2.29271   2.29659   2.30092   2.30292   2.32394
 Alpha virt. eigenvalues --    2.32817   2.33096   2.33876   2.34716   2.34761
 Alpha virt. eigenvalues --    2.35014   2.35050   2.35204   2.35284   2.35574
 Alpha virt. eigenvalues --    2.36111   2.36650   2.37607   2.38136   2.38178
 Alpha virt. eigenvalues --    2.39561   2.40173   2.40620   2.41166   2.41946
 Alpha virt. eigenvalues --    2.42677   2.43076   2.43356   2.44839   2.44908
 Alpha virt. eigenvalues --    2.45239   2.47825   2.48258   2.48524   2.49328
 Alpha virt. eigenvalues --    2.49707   2.50323   2.50510   2.52118   2.52168
 Alpha virt. eigenvalues --    2.52279   2.52633   2.52855   2.53123   2.53386
 Alpha virt. eigenvalues --    2.53859   2.54364   2.54894   2.55061   2.55613
 Alpha virt. eigenvalues --    2.55920   2.56425   2.57099   2.57356   2.57842
 Alpha virt. eigenvalues --    2.58102   2.58369   2.58624   2.58751   2.60966
 Alpha virt. eigenvalues --    2.61684   2.62613   2.63670   2.64005   2.64337
 Alpha virt. eigenvalues --    2.64588   2.65548   2.67114   2.67460   2.67609
 Alpha virt. eigenvalues --    2.68491   2.68855   2.69305   2.69521   2.69804
 Alpha virt. eigenvalues --    2.70071   2.70526   2.70639   2.71149   2.71159
 Alpha virt. eigenvalues --    2.71391   2.71922   2.72154   2.72302   2.73350
 Alpha virt. eigenvalues --    2.73853   2.74598   2.75023   2.75771   2.75976
 Alpha virt. eigenvalues --    2.77048   2.77419   2.77488   2.77888   2.79068
 Alpha virt. eigenvalues --    2.79297   2.79436   2.80258   2.80939   2.81349
 Alpha virt. eigenvalues --    2.81869   2.82136   2.82422   2.82632   2.83494
 Alpha virt. eigenvalues --    2.83692   2.84131   2.84766   2.84850   2.85461
 Alpha virt. eigenvalues --    2.85895   2.86299   2.86805   2.87495   2.88788
 Alpha virt. eigenvalues --    2.89546   2.90191   2.90531   2.91036   2.92158
 Alpha virt. eigenvalues --    2.92496   2.93923   2.95159   2.96039   2.96543
 Alpha virt. eigenvalues --    2.96697   2.97262   2.98715   2.99048   3.00468
 Alpha virt. eigenvalues --    3.00848   3.01818   3.02483   3.03615   3.03767
 Alpha virt. eigenvalues --    3.04384   3.05310   3.06181   3.06608   3.07568
 Alpha virt. eigenvalues --    3.11044   3.13508   3.16619   3.16862   3.17243
 Alpha virt. eigenvalues --    3.18971   3.19404   3.23010   3.23688   3.23828
 Alpha virt. eigenvalues --    3.24497   3.24766   3.25350   3.26677   3.27688
 Alpha virt. eigenvalues --    3.28008   3.28125   3.28781   3.29947   3.31103
 Alpha virt. eigenvalues --    3.31608   3.32105   3.32708   3.33833   3.35049
 Alpha virt. eigenvalues --    3.36516   3.37538   3.40079   3.40247   3.41023
 Alpha virt. eigenvalues --    3.42488   3.43596   3.44632   3.45232   3.45865
 Alpha virt. eigenvalues --    3.46098   3.46209   3.46789   3.47143   3.47508
 Alpha virt. eigenvalues --    3.48036   3.48597   3.52173   3.52291   3.53139
 Alpha virt. eigenvalues --    3.54133   3.54804   3.55298   3.57625   3.58023
 Alpha virt. eigenvalues --    3.58516   3.58823   3.61203   3.64183   3.69410
 Alpha virt. eigenvalues --    3.74951   3.87960   3.88479   3.90149   8.84165
 Alpha virt. eigenvalues --   11.50953  11.71854
          Condensed to atoms (all electrons):
 Mulliken charges:
               1
     1  Zn   0.606084
     2  O   -0.919481
     3  O   -0.741718
     4  O   -0.528833
     5  O   -0.436698
     6  C    0.480384
     7  Zn   0.756195
     8  O   -0.474409
     9  O   -0.474262
    10  O   -0.392339
    11  O   -0.432966
    12  C    0.522937
    13  C    0.417219
    14  H    0.087209
    15  H    0.086520
    16  H    0.083364
    17  C   -0.284821
    18  C   -0.152753
    19  C   -0.543361
    20  C   -0.103330
    21  C   -0.098552
    22  N    0.327506
    23  H    0.140898
    24  H    0.177268
    25  H    0.153925
    26  H    0.139882
    27  H    0.184740
    28  C   -0.234167
    29  C    0.035049
    30  C   -0.555175
    31  C    0.146470
    32  C   -0.247526
    33  N    0.170756
    34  H    0.143820
    35  H    0.190246
    36  H    0.143595
    37  H    0.141124
    38  H    0.184971
    39  H    0.498845
    40  H    0.471029
    41  H    0.364611
    42  C   -0.313478
    43  C   -0.000442
    44  C   -0.024061
    45  O   -0.321430
    46  C   -0.243660
    47  C    0.020850
    48  C   -0.143712
    49  O   -0.273297
    50  H    0.134739
    51  H    0.130531
    52  H    0.136478
    53  H    0.128505
    54  H    0.115196
    55  H    0.168654
    56  H    0.129976
    57  H    0.144199
    58  H    0.180994
    59  H    0.185554
    60  N   -0.517773
    61  C   -0.142478
    62  C   -0.818725
    63  H    0.245357
    64  H    0.241138
    65  H    0.188770
    66  H    0.142291
    67  H    0.148488
    68  C    0.117940
    69  C   -0.626754
    70  H    0.182546
    71  H    0.186030
    72  H    0.162674
    73  H    0.167451
    74  H    0.162672
    75  C    0.241430
    76  C   -0.605535
    77  H    0.149703
    78  H    0.197287
    79  H    0.149678
    80  H    0.189666
    81  H    0.212927
    82  C    0.083520
    83  C   -0.588953
    84  H    0.158713
    85  H    0.248349
    86  H    0.166430
    87  H    0.142469
    88  H    0.170400
    89  Br  -0.216547
    90  C    0.410514
    91  O   -0.621381
    92  O   -0.518153
 Sum of Mulliken charges =   0.00000
 Mulliken charges with hydrogens summed into heavy atoms:
               1
     1  Zn   0.606084
     2  O   -0.554869
     3  O    0.228156
     4  O   -0.528833
     5  O   -0.436698
     6  C    0.567593
     7  Zn   0.756195
     8  O   -0.474409
     9  O   -0.474262
    10  O   -0.392339
    11  O   -0.432966
    12  C    0.609456
    13  C    0.500584
    17  C   -0.107552
    18  C    0.001172
    19  C   -0.402463
    20  C    0.036552
    21  C    0.086188
    22  N    0.327506
    28  C   -0.043921
    29  C    0.178644
    30  C   -0.411355
    31  C    0.287594
    32  C   -0.062555
    33  N    0.170756
    42  C   -0.048208
    43  C    0.136036
    44  C    0.219641
    45  O   -0.321430
    46  C    0.054970
    47  C    0.165049
    48  C    0.222836
    49  O   -0.273297
    60  N   -0.517773
    61  C    0.344016
    62  C   -0.339175
    68  C    0.486516
    69  C   -0.133957
    75  C    0.588419
    76  C   -0.053263
    82  C    0.490582
    83  C   -0.109654
    89  Br  -0.216547
    90  C    0.410514
    91  O   -0.621381
    92  O   -0.518153
 Electronic spatial extent (au):  <R**2>=          45437.3241
 Charge=              0.0000 electrons
 Dipole moment (field-independent basis, Debye):
    X=             -5.0400    Y=             -5.9733    Z=             -6.4301  Tot=             10.1206
 Quadrupole moment (field-independent basis, Debye-Ang):
   XX=           -282.0576   YY=           -255.0512   ZZ=           -255.7924
   XY=             42.3502   XZ=              7.3750   YZ=             33.1358
 Traceless Quadrupole moment (field-independent basis, Debye-Ang):
   XX=            -17.7572   YY=              9.2492   ZZ=              8.5080
   XY=             42.3502   XZ=              7.3750   YZ=             33.1358
 Octapole moment (field-independent basis, Debye-Ang**2):
  XXX=          -1326.3548  YYY=            416.8024  ZZZ=           1043.6951  XYY=           -366.7647
  XXY=             90.8402  XXZ=            430.9472  XZZ=           -372.8207  YZZ=            -55.2983
  YYZ=            349.8559  XYZ=             11.2176
 Hexadecapole moment (field-independent basis, Debye-Ang**3):
 XXXX=         -33764.0074 YYYY=         -10310.5285 ZZZZ=         -10580.1204 XXXY=           2092.0690
 XXXZ=           3963.3880 YYYX=           1382.0671 YYYZ=          -2099.1848 ZZZX=           3784.1575
 ZZZY=          -1864.8491 XXYY=          -7595.3002 XXZZ=          -7704.6374 YYZZ=          -3379.4809
 XXYZ=          -1004.2056 YYXZ=           1282.6598 ZZXY=            259.6299
 N-N= 7.422560825564D+03 E-N=-2.651819985549D+04  KE= 4.947624767980D+03
  Exact polarizability: 535.905  48.935 444.705 -15.260  17.986 410.799
 Approx polarizability: 699.984  74.304 650.650 -10.296   2.577 597.728
   1 Symmetry operations used in ECPInt.
 ECPInt:  NShTT=   71631 NPrTT=  319784 LenC2=   51360 LenP2D=  131008.
 LDataN:  DoStor=T MaxTD1= 7 Len=  274
 Calling FoFJK, ICntrl=    100127 FMM=F ISym2X=0 I1Cent= 0 IOpClX= 0 NMat=1 NMatS=1 NMatT=0.
 -------------------------------------------------------------------
 Center     Atomic                   Forces (Hartrees/Bohr)
 Number     Number              X              Y              Z
 -------------------------------------------------------------------
      1       30          -0.000000636    0.000000630    0.000000336
      2        8          -0.000000222   -0.000001407    0.000000723
      3        8           0.000001544    0.000000386   -0.000001961
      4        8          -0.000000000   -0.000000000   -0.000000000
      5        8          -0.000000000   -0.000000000   -0.000000000
      6        6          -0.000000000   -0.000000000   -0.000000000
      7       30           0.000000053    0.000000261    0.000000085
      8        8          -0.000000000   -0.000000000   -0.000000000
      9        8          -0.000000000   -0.000000000   -0.000000000
     10        8          -0.000000000   -0.000000000   -0.000000000
     11        8          -0.000000000   -0.000000000   -0.000000000
     12        6          -0.000000000   -0.000000000   -0.000000000
     13        6          -0.000000000   -0.000000000   -0.000000000
     14        1          -0.000000000   -0.000000000   -0.000000000
     15        1          -0.000000000   -0.000000000   -0.000000000
     16        1          -0.000000000   -0.000000000   -0.000000000
     17        6          -0.000000000   -0.000000000   -0.000000000
     18        6          -0.000000000   -0.000000000   -0.000000000
     19        6          -0.000000000   -0.000000000   -0.000000000
     20        6          -0.000000000   -0.000000000   -0.000000000
     21        6          -0.000000000   -0.000000000   -0.000000000
     22        7          -0.000000000   -0.000000000   -0.000000000
     23        1          -0.000000000   -0.000000000   -0.000000000
     24        1          -0.000000000   -0.000000000   -0.000000000
     25        1          -0.000000000   -0.000000000   -0.000000000
     26        1          -0.000000000   -0.000000000   -0.000000000
     27        1          -0.000000000   -0.000000000   -0.000000000
     28        6          -0.000000000   -0.000000000   -0.000000000
     29        6          -0.000000000   -0.000000000   -0.000000000
     30        6          -0.000000000   -0.000000000   -0.000000000
     31        6          -0.000000000   -0.000000000   -0.000000000
     32        6          -0.000000000   -0.000000000   -0.000000000
     33        7          -0.000000000   -0.000000000   -0.000000000
     34        1          -0.000000000   -0.000000000   -0.000000000
     35        1          -0.000000000   -0.000000000   -0.000000000
     36        1          -0.000000000   -0.000000000   -0.000000000
     37        1          -0.000000000   -0.000000000   -0.000000000
     38        1          -0.000000000   -0.000000000   -0.000000000
     39        1           0.000001138    0.000000486   -0.000000194
     40        1          -0.000002136   -0.000000376    0.000002113
     41        1          -0.000000612    0.000001038    0.000000186
     42        6          -0.000068077   -0.000019194    0.000019978
     43        6           0.000043917    0.000035173   -0.000019213
     44        6          -0.000006188    0.000056816    0.000007698
     45        8          -0.000008945   -0.000022336   -0.000078439
     46        6           0.000010359    0.000042008   -0.000003317
     47        6          -0.000005633   -0.000029048   -0.000009924
     48        6           0.000009922    0.000048956   -0.000003416
     49        8           0.000050873   -0.000047107   -0.000004470
     50        1          -0.000073786    0.000005889   -0.000037221
     51        1           0.000004158   -0.000045435    0.000094727
     52        1          -0.000008912    0.000046070   -0.000101301
     53        1          -0.000002451    0.000015611    0.000000859
     54        1           0.000003902   -0.000041918    0.000090205
     55        1          -0.000003537    0.000007642    0.000001257
     56        1           0.000018147   -0.000046441    0.000083276
     57        1          -0.000012244   -0.000002062   -0.000005542
     58        1           0.000052811   -0.000028340   -0.000067305
     59        1          -0.000073721    0.000023776   -0.000029119
     60        7          -0.000007539   -0.000001985   -0.000008884
     61        6          -0.000004497   -0.000003827    0.000001554
     62        6           0.000000557    0.000000708   -0.000003301
     63        1          -0.000005086   -0.000006552   -0.000000898
     64        1           0.000008291    0.000000086   -0.000010231
     65        1           0.000000861   -0.000008624   -0.000002837
     66        1          -0.000004571   -0.000001442    0.000006791
     67        1           0.000005054    0.000001124   -0.000000458
     68        6          -0.000006896    0.000001941    0.000002797
     69        6           0.000011399    0.000006919    0.000004213
     70        1          -0.000001954   -0.000004524    0.000006923
     71        1           0.000019672   -0.000002775   -0.000012368
     72        1           0.000003498    0.000005061    0.000003712
     73        1          -0.000017974    0.000003653    0.000012178
     74        1           0.000003132    0.000008087   -0.000006870
     75        6          -0.000008848   -0.000007550    0.000014767
     76        6           0.000025746    0.000021032    0.000008521
     77        1          -0.000002076    0.000041067    0.000019530
     78        1           0.000052149   -0.000001264   -0.000022140
     79        1           0.000015449    0.000023979   -0.000023296
     80        1          -0.000075591    0.000004395    0.000025450
     81        1           0.000007750   -0.000074033   -0.000035170
     82        6           0.000015560    0.000001304   -0.000005683
     83        6          -0.000016998    0.000006213    0.000011836
     84        1          -0.000001202    0.000028507    0.000000555
     85        1          -0.000017157   -0.000016791   -0.000020444
     86        1          -0.000013310   -0.000000682    0.000011900
     87        1           0.000014330    0.000013781    0.000021848
     88        1          -0.000004704   -0.000036838   -0.000001363
     89       35           0.000001991    0.000004977   -0.000006959
     90        6          -0.000033427   -0.000003371   -0.000014215
     91        8           0.000134197   -0.000059079    0.000002146
     92        8          -0.000032701    0.000065618    0.000047097
 -------------------------------------------------------------------
 Cartesian Forces:  Max     0.000134197 RMS     0.000023583

 GradGradGradGradGradGradGradGradGradGradGradGradGradGradGradGradGradGrad
 Berny optimization.
 Search for a local minimum.
 Step number   1 out of a maximum of  286
 All quantities printed in internal units (Hartrees-Bohrs-Radians)
 Second derivative matrix not updated -- analytic derivatives used.
 ITU=  0
     Eigenvalues ---    0.00000   0.00001   0.00002   0.00005   0.00006
     Eigenvalues ---    0.00009   0.00013   0.00024   0.00029   0.00032
     Eigenvalues ---    0.00040   0.00049   0.00065   0.00073   0.00090
     Eigenvalues ---    0.00098   0.00135   0.00151   0.00167   0.00217
     Eigenvalues ---    0.00231   0.00287   0.00311   0.00369   0.00448
     Eigenvalues ---    0.00457   0.00472   0.00496   0.00533   0.00571
     Eigenvalues ---    0.00609   0.00666   0.00852   0.00935   0.01057
     Eigenvalues ---    0.01218   0.01272   0.01291   0.01305   0.01455
     Eigenvalues ---    0.01483   0.01828   0.01944   0.02000   0.02169
     Eigenvalues ---    0.02401   0.02635   0.02763   0.03058   0.03229
     Eigenvalues ---    0.03432   0.03460   0.03547   0.03682   0.03725
     Eigenvalues ---    0.04165   0.04427   0.04483   0.04626   0.04931
     Eigenvalues ---    0.05136   0.05349   0.05447   0.05513   0.05632
     Eigenvalues ---    0.05729   0.06067   0.06110   0.06145   0.06233
     Eigenvalues ---    0.06461   0.06529   0.06806   0.07066   0.07134
     Eigenvalues ---    0.07442   0.07691   0.07711   0.07963   0.07992
     Eigenvalues ---    0.08065   0.08746   0.08901   0.09010   0.09719
     Eigenvalues ---    0.09780   0.09837   0.09996   0.10306   0.10361
     Eigenvalues ---    0.11152   0.11286   0.11350   0.11474   0.11495
     Eigenvalues ---    0.12175   0.12872   0.12984   0.13788   0.13825
     Eigenvalues ---    0.14013   0.14070   0.14249   0.14347   0.15108
     Eigenvalues ---    0.15129   0.15155   0.15610   0.15656   0.16177
     Eigenvalues ---    0.16866   0.16965   0.17795   0.18502   0.18918
     Eigenvalues ---    0.20412   0.20611   0.20703   0.21325   0.22329
     Eigenvalues ---    0.23555   0.26866   0.30883   0.31498   0.32605
     Eigenvalues ---    0.33042   0.34005   0.34859   0.35828   0.42481
     Eigenvalues ---    0.43366   0.47074   0.49937   0.50115   0.51967
     Eigenvalues ---    0.53239   0.56811   0.58681   0.62056   0.62470
     Eigenvalues ---    0.63259   0.63407   0.65329   0.66103   0.70769
     Eigenvalues ---    0.72821   0.74904   0.76194   0.76837   0.78579
     Eigenvalues ---    0.78832   0.79758   0.81766   0.82963   0.83302
     Eigenvalues ---    0.83329   0.84259   0.86556   0.86781   0.86970
     Eigenvalues ---    0.88110   0.88497   0.89685   0.90888   0.91605
     Eigenvalues ---    0.92274   0.94739   0.95477   0.95962   0.98064
     Eigenvalues ---    0.98523   1.05970   1.46451   1.48223
 RFO step:  Lambda=-9.96641361D-06 EMin= 2.63591331D-06
 Linear search not attempted -- first point.
 Maximum step size (   0.300) exceeded in Quadratic search.
    -- Step size scaled by   0.350
 Variable       Old X    -DE/DX   Delta X   Delta X   Delta X     New X
                                 (Linear)    (Quad)   (Total)
    X1       -4.96394  -0.00000   0.00000  -0.00011  -0.00011  -4.96405
    Y1       -0.25915   0.00000   0.00000   0.00012   0.00012  -0.25903
    Z1       -0.33254   0.00000   0.00000   0.00006   0.00006  -0.33248
    X2       -2.27203  -0.00000   0.00000  -0.00020  -0.00020  -2.27223
    Y2       -2.62447  -0.00000   0.00000  -0.00029  -0.00029  -2.62475
    Z2       -1.81832   0.00000   0.00000   0.00039   0.00039  -1.81792
    X3        1.51144   0.00000   0.00000  -0.00003  -0.00003   1.51142
    Y3        0.28355   0.00000   0.00000  -0.00005  -0.00005   0.28350
    Z3       -1.14943  -0.00000   0.00000  -0.00007  -0.00007  -1.14950
    X4       -3.66700  -0.00000   0.00000   0.00000   0.00000  -3.66700
    Y4       -1.20542  -0.00000   0.00000   0.00000   0.00000  -1.20542
    Z4        3.25893  -0.00000   0.00000   0.00000   0.00000   3.25893
    X5       -0.70429  -0.00000   0.00000   0.00000   0.00000  -0.70429
    Y5        1.91028  -0.00000   0.00000   0.00000   0.00000   1.91028
    Z5        3.62255  -0.00000   0.00000   0.00000   0.00000   3.62255
    X6       -2.01960  -0.00000   0.00000   0.00000   0.00000  -2.01960
    Y6        0.10841  -0.00000   0.00000   0.00000   0.00000   0.10841
    Z6        4.45388  -0.00000   0.00000   0.00000   0.00000   4.45388
    X7       -0.38793   0.00000   0.00000   0.00001   0.00001  -0.38792
    Y7        3.52455   0.00000   0.00000   0.00007   0.00007   3.52463
    Z7       -0.12188   0.00000   0.00000   0.00000   0.00000  -0.12187
    X8       -3.08040  -0.00000   0.00000   0.00000   0.00000  -3.08040
    Y8        6.08644  -0.00000   0.00000   0.00000   0.00000   6.08644
    Z8        1.02173  -0.00000   0.00000   0.00000   0.00000   1.02173
    X9       -6.32125  -0.00000   0.00000   0.00000   0.00000  -6.32125
    Y9        3.26012  -0.00000   0.00000   0.00000   0.00000   3.26012
    Z9        1.36098  -0.00000   0.00000   0.00000   0.00000   1.36098
   X10       -2.05141  -0.00000   0.00000   0.00000   0.00000  -2.05141
   Y10        3.75065  -0.00000   0.00000   0.00000   0.00000   3.75065
   Z10       -3.89425  -0.00000   0.00000   0.00000   0.00000  -3.89425
   X11       -5.65738  -0.00000   0.00000   0.00000   0.00000  -5.65738
   Y11        1.39334  -0.00000   0.00000   0.00000   0.00000   1.39334
   Z11       -3.80093  -0.00000   0.00000   0.00000   0.00000  -3.80093
   X12       -5.32107  -0.00000   0.00000   0.00000   0.00000  -5.32107
   Y12        5.42457  -0.00000   0.00000   0.00000   0.00000   5.42457
   Z12        1.58880  -0.00000   0.00000   0.00000   0.00000   1.58880
   X13       -4.06455  -0.00000   0.00000   0.00000   0.00000  -4.06455
   Y13        2.87770  -0.00000   0.00000   0.00000   0.00000   2.87770
   Z13       -4.83599  -0.00000   0.00000   0.00000   0.00000  -4.83599
   X14       -1.71602  -0.00000   0.00000   0.00000   0.00000  -1.71602
   Y14       -0.44338  -0.00000   0.00000   0.00000   0.00000  -0.44338
   Z14        6.46269  -0.00000   0.00000   0.00000   0.00000   6.46269
   X15       -6.55099  -0.00000   0.00000   0.00000   0.00000  -6.55099
   Y15        6.93289  -0.00000   0.00000   0.00000   0.00000   6.93289
   Z15        2.38283  -0.00000   0.00000   0.00000   0.00000   2.38283
   X16       -4.51509  -0.00000   0.00000   0.00000   0.00000  -4.51509
   Y16        3.47021  -0.00000   0.00000   0.00000   0.00000   3.47021
   Z16       -6.80091  -0.00000   0.00000   0.00000   0.00000  -6.80091
   X17        4.89701  -0.00000   0.00000   0.00000   0.00000   4.89701
   Y17        5.40406  -0.00000   0.00000   0.00000   0.00000   5.40406
   Z17       -1.04149  -0.00000   0.00000   0.00000   0.00000  -1.04149
   X18        7.00826  -0.00000   0.00000   0.00000   0.00000   7.00826
   Y18        7.00675  -0.00000   0.00000   0.00000   0.00000   7.00675
   Z18       -1.01544  -0.00000   0.00000   0.00000   0.00000  -1.01544
   X19        6.73884  -0.00000   0.00000   0.00000   0.00000   6.73884
   Y19        9.46134  -0.00000   0.00000   0.00000   0.00000   9.46134
   Z19       -0.03998  -0.00000   0.00000   0.00000   0.00000  -0.03998
   X20        4.36501  -0.00000   0.00000   0.00000   0.00000   4.36501
   Y20       10.23291  -0.00000   0.00000   0.00000   0.00000  10.23291
   Z20        0.86765  -0.00000   0.00000   0.00000   0.00000   0.86765
   X21        2.34497  -0.00000   0.00000   0.00000   0.00000   2.34497
   Y21        8.51926  -0.00000   0.00000   0.00000   0.00000   8.51926
   Z21        0.77554  -0.00000   0.00000   0.00000   0.00000   0.77554
   X22        2.61528  -0.00000   0.00000   0.00000   0.00000   2.61528
   Y22        6.15252  -0.00000   0.00000   0.00000   0.00000   6.15252
   Z22       -0.15606  -0.00000   0.00000   0.00000   0.00000  -0.15606
   X23        8.35087  -0.00000   0.00000   0.00000   0.00000   8.35087
   Y23       10.75330  -0.00000   0.00000   0.00000   0.00000  10.75330
   Z23        0.01090  -0.00000   0.00000   0.00000   0.00000   0.01090
   X24        4.97028  -0.00000   0.00000   0.00000   0.00000   4.97028
   Y24        3.46979  -0.00000   0.00000   0.00000   0.00000   3.46979
   Z24       -1.76621  -0.00000   0.00000   0.00000   0.00000  -1.76621
   X25        8.81639  -0.00000   0.00000   0.00000   0.00000   8.81639
   Y25        6.33064  -0.00000   0.00000   0.00000   0.00000   6.33064
   Z25       -1.74506  -0.00000   0.00000   0.00000   0.00000  -1.74506
   X26        4.07193  -0.00000   0.00000   0.00000   0.00000   4.07193
   Y26       12.12530  -0.00000   0.00000   0.00000   0.00000  12.12530
   Z26        1.63740  -0.00000   0.00000   0.00000   0.00000   1.63740
   X27        0.45209  -0.00000   0.00000   0.00000   0.00000   0.45209
   Y27        9.00184  -0.00000   0.00000   0.00000   0.00000   9.00184
   Z27        1.44468  -0.00000   0.00000   0.00000   0.00000   1.44468
   X28       -8.94747  -0.00000   0.00000   0.00000   0.00000  -8.94747
   Y28       -3.75931  -0.00000   0.00000   0.00000   0.00000  -3.75931
   Z28        1.92471  -0.00000   0.00000   0.00000   0.00000   1.92471
   X29      -11.13792  -0.00000   0.00000   0.00000   0.00000 -11.13792
   Y29       -5.24484  -0.00000   0.00000   0.00000   0.00000  -5.24484
   Z29        2.05762  -0.00000   0.00000   0.00000   0.00000   2.05762
   X30      -12.76454  -0.00000   0.00000   0.00000   0.00000 -12.76454
   Y30       -5.31626  -0.00000   0.00000   0.00000   0.00000  -5.31626
   Z30       -0.04021  -0.00000   0.00000   0.00000   0.00000  -0.04021
   X31      -12.14445  -0.00000   0.00000   0.00000   0.00000 -12.14445
   Y31       -3.89762  -0.00000   0.00000   0.00000   0.00000  -3.89762
   Z31       -2.19724  -0.00000   0.00000   0.00000   0.00000  -2.19724
   X32       -9.92068  -0.00000   0.00000   0.00000   0.00000  -9.92068
   Y32       -2.45560  -0.00000   0.00000   0.00000   0.00000  -2.45560
   Z32       -2.18360  -0.00000   0.00000   0.00000   0.00000  -2.18360
   X33       -8.35500  -0.00000   0.00000   0.00000   0.00000  -8.35500
   Y33       -2.39626  -0.00000   0.00000   0.00000   0.00000  -2.39626
   Z33       -0.15913  -0.00000   0.00000   0.00000   0.00000  -0.15913
   X34      -14.48640  -0.00000   0.00000   0.00000   0.00000 -14.48640
   Y34       -6.45744  -0.00000   0.00000   0.00000   0.00000  -6.45744
   Z34        0.00586  -0.00000   0.00000   0.00000   0.00000   0.00586
   X35       -7.60690  -0.00000   0.00000   0.00000   0.00000  -7.60690
   Y35       -3.62292  -0.00000   0.00000   0.00000   0.00000  -3.62292
   Z35        3.48999  -0.00000   0.00000   0.00000   0.00000   3.48999
   X36      -11.54815  -0.00000   0.00000   0.00000   0.00000 -11.54815
   Y36       -6.31596  -0.00000   0.00000   0.00000   0.00000  -6.31596
   Z36        3.77316  -0.00000   0.00000   0.00000   0.00000   3.77316
   X37      -13.35563  -0.00000   0.00000   0.00000   0.00000 -13.35563
   Y37       -3.89645  -0.00000   0.00000   0.00000   0.00000  -3.89645
   Z37       -3.86803  -0.00000   0.00000   0.00000   0.00000  -3.86803
   X38       -9.33569  -0.00000   0.00000   0.00000   0.00000  -9.33569
   Y38       -1.30653  -0.00000   0.00000   0.00000   0.00000  -1.30653
   Z38       -3.79691  -0.00000   0.00000   0.00000   0.00000  -3.79691
   X39        0.12489   0.00000   0.00000   0.00004   0.00004   0.12493
   Y39       -1.02482   0.00000   0.00000  -0.00009  -0.00009  -1.02491
   Z39       -1.53342  -0.00000   0.00000   0.00008   0.00008  -1.53333
   X40        2.81389  -0.00000   0.00000  -0.00078  -0.00078   2.81311
   Y40        0.25010  -0.00000   0.00000   0.00062   0.00062   0.25072
   Z40       -2.48751   0.00000   0.00000  -0.00074  -0.00074  -2.48825
   X41       -2.01218  -0.00000   0.00000   0.00007   0.00007  -2.01211
   Y41       -3.88179   0.00000   0.00000   0.00055   0.00055  -3.88124
   Z41       -0.51769   0.00000   0.00000   0.00116   0.00116  -0.51653
   X42       21.77179  -0.00007   0.00000  -0.00948  -0.00948  21.76231
   Y42       -1.97829  -0.00002   0.00000   0.03220   0.03220  -1.94609
   Z42       -6.36733   0.00002   0.00000  -0.09094  -0.09094  -6.45827
   X43       19.76590   0.00004   0.00000  -0.00113  -0.00113  19.76477
   Y43       -2.87193   0.00004   0.00000   0.02579   0.02579  -2.84614
   Z43       -5.12306  -0.00002   0.00000  -0.08226  -0.08226  -5.20532
   X44       17.10991  -0.00001   0.00000  -0.00645  -0.00645  17.10346
   Y44       -2.81617   0.00006   0.00000   0.02318   0.02318  -2.79298
   Z44       -6.11401   0.00001   0.00000  -0.06785  -0.06785  -6.18187
   X45       15.50795  -0.00001   0.00000   0.00153   0.00153  15.50948
   Y45       -1.70704  -0.00002   0.00000   0.01599   0.01599  -1.69105
   Z45       -4.26355  -0.00008   0.00000  -0.05681  -0.05681  -4.32037
   X46       12.89308   0.00001   0.00000  -0.00185  -0.00185  12.89123
   Y46       -1.78798   0.00004   0.00000   0.01311   0.01311  -1.77487
   Z46       -4.95179  -0.00000   0.00000  -0.04324  -0.04324  -4.99504
   X47       11.46570  -0.00001   0.00000   0.00831   0.00831  11.47401
   Y47       -0.70404  -0.00003   0.00000   0.00605   0.00605  -0.69799
   Z47       -2.67513  -0.00001   0.00000  -0.03367  -0.03367  -2.70880
   X48       11.54223   0.00001   0.00000   0.02226   0.02226  11.56449
   Y48       -2.34863   0.00005   0.00000   0.00075   0.00075  -2.34788
   Z48       -0.30795  -0.00000   0.00000  -0.03795  -0.03795  -0.34589
[...]
 0086911,-0.00342275,0.00055579,0.00179602,0.,0.,0.,0.,0.,0.,0.,0.,0.,0
 .00129311,0.00029952,0.00018851,0.,0.,0.,0.,0.,0.,0.,0.,0.,0.,0.,0.,0.
 ,0.,0.,0.,0.,0.,0.,0.,0.,0.,0.,0.,0.,0.,0.,0.,0.,0.,0.,0.,0.,0.,0.,0.,
 0.,0.,0.,0.,0.,0.,0.,0.,0.,0.,0.,0.,0.,0.,0.,0.,0.,0.,0.,0.,0.,0.,0.,0
 .,0.,0.,0.,0.,0.,0.,0.,0.,0.,0.,0.,0.,0.,0.,0.,0.,0.,0.,0.,0.,0.,0.,0.
 ,0.,0.,0.,0.,0.,0.,0.,0.,0.,0.,0.00121124,0.00109762,0.00030016,0.0038
 0424,-0.00281376,-0.00250979,-0.00001339,0.00013271,0.00010084,0.00004
 323,-0.00005769,-0.00006694,-0.00007916,-0.00006254,-0.00031855,0.0005
 5213,0.00031215,0.00053316,-0.00233537,-0.00169740,-0.00297291,0.00347
 613,0.00193463,0.00243199,-0.00728507,-0.00266714,0.02001037,0.0095126
 8,0.00468826,-0.00403075,-0.02735772,-0.07674039,-0.02796709,0.0000280
 0,0.00005321,0.00002882,-0.00000080,0.00002052,0.00001961,-0.00000789,
 0.00003904,0.00005970,0.00004540,-0.00018136,-0.00019496,-0.00004650,0
 .00010231,-0.00011921,0.00120695,-0.00133562,-0.00224184,-0.00022778,0
 .00091194,0.00065020,0.00101244,0.00069801,-0.00030037,-0.00097780,0.0
 0003526,-0.00032968,0.00152871,-0.00306931,0.00015209,0.00000377,-0.00
 019735,-0.00006297,-0.00007083,-0.00062027,-0.00143011,-0.00016423,0.0
 0028719,0.00065956,-0.00252296,0.00070205,0.00260153,0.00069790,0.0003
 4567,0.00051497,0.00015703,-0.00005894,0.00003805,-0.00066269,0.000352
 69,-0.00098232,0.00056156,-0.00001508,-0.00012166,-0.00047422,-0.00011
 431,-0.00029005,0.00009233,0.00000060,0.00009529,-0.00002218,0.0000157
 3,0.00000823,0.00008907,0.00002223,0.00003814,0.00006981,0.00003914,0.
 00003922,-0.00003597,-0.00007950,-0.00004312,-0.00002359,0.00002773,-0
 .00004425,-0.00008383,-0.00043351,0.00020951,-0.00024865,-0.00034188,-
 0.00060782,0.00001461,0.00007201,-0.00003099,-0.00001743,0.00019710,0.
 00024235,0.00039366,0.00043660,-0.00020415,0.00005793,-0.00107583,-0.0
 0005254,-0.00141774,-0.00025959,0.00199480,-0.00095281,-0.00001369,0.0
 0035058,0.00040229,0.00018190,-0.00022673,0.00032933,0.00029976,0.0000
 0163,-0.00155737,-0.00270024,-0.00160537,-0.00004416,-0.00011391,-0.00
 013177,0.00024385,0.00013323,0.00027614,-0.00017892,-0.00005371,-0.000
 10901,-0.00120218,-0.00210445,-0.00032570,0.03629927,0.34814067,0.0017
 1110,0.00033273,0.00047446,-0.00333886,-0.00256380,-0.00139512,-0.0125
 0297,-0.00113961,0.00843189,0.,0.,0.,0.,0.,0.,0.,0.,0.,0.00493792,-0.0
 0247262,-0.00137197,0.,0.,0.,0.,0.,0.,0.,0.,0.,0.,0.,0.,0.,0.,0.,0.,0.
 ,0.,0.,0.,0.,0.,0.,0.,0.,0.,0.,0.,0.,0.,0.,0.,0.,0.,0.,0.,0.,0.,0.,0.,
 0.,0.,0.,0.,0.,0.,0.,0.,0.,0.,0.,0.,0.,0.,0.,0.,0.,0.,0.,0.,0.,0.,0.,0
 .,0.,0.,0.,0.,0.,0.,0.,0.,0.,0.,0.,0.,0.,0.,0.,0.,0.,0.,0.,0.,0.,0.,0.
 ,0.,0.,0.,0.,0.,0.,0.00533603,0.00415721,0.00097687,0.01366629,0.00050
 385,-0.01423114,0.00027111,0.00032587,0.00007718,-0.00030960,-0.000071
 91,0.00014804,0.00034910,-0.00002051,-0.00004615,0.00017876,0.00020569
 ,-0.00243803,-0.00664968,-0.00238707,0.00086861,0.01044274,0.00295449,
 0.00102447,0.01573095,0.01578828,0.00979571,0.00344771,0.00245973,-0.0
 0055521,-0.02180585,-0.03187622,-0.09760065,-0.00010206,-0.00004650,0.
 00009025,0.00005226,0.00002516,-0.00001277,-0.00009248,0.00000333,-0.0
 0001644,0.00016654,-0.00009561,-0.00002924,0.00014777,0.00006824,0.000
 06445,0.00199375,-0.00129432,-0.00307491,0.00024868,0.00236120,-0.0013
 6804,0.00473372,-0.00059196,-0.00332594,-0.00104022,-0.00010526,-0.000
 13919,0.00055815,-0.00120577,0.00015425,-0.00086815,-0.00026461,-0.001
 09234,0.00046049,-0.00125545,-0.00255215,-0.00118426,0.00001255,0.0012
 8054,0.00070424,0.00310833,0.00871988,0.00136310,0.00061650,0.00081218
 ,0.00019340,-0.00027933,0.00041162,-0.00126206,0.00048669,-0.00231800,
 0.00090656,0.00032566,-0.00082455,0.00000148,-0.00059494,-0.00080230,-
 0.00026526,0.00000308,0.00013927,-0.00024639,0.00008751,-0.00007583,0.
 00041712,0.00005180,0.00008270,0.00003961,-0.00001648,-0.00003088,-0.0
 0000751,-0.00025842,-0.00009361,0.00006718,0.00012267,-0.00012904,0.00
 106218,-0.00185178,0.00146626,-0.00107947,0.00048439,-0.00063469,-0.00
 058225,-0.00009456,-0.00051541,-0.00001106,0.00057255,0.00024296,0.000
 35735,0.00004332,-0.00038160,0.00027066,-0.00192844,-0.00013585,0.0017
 7971,0.00498627,0.00130454,-0.00123316,0.00186225,0.00225747,0.0009704
 1,0.00048246,-0.00077232,0.00100015,0.00081179,0.00005122,-0.00549618,
 -0.00731884,-0.00287616,-0.00007783,-0.00036056,-0.00047258,0.00052293
 ,0.00025674,0.00068184,-0.00049092,-0.00010518,-0.00011105,-0.00202081
 ,-0.00090489,-0.00107343,-0.13403982,0.23188334,0.87591244,0.00198383,
 -0.00025414,-0.00075143,-0.00353014,-0.00226897,-0.00029649,-0.0168997
 5,-0.00102457,0.01324230,0.,0.,0.,0.,0.,0.,0.,0.,0.,0.00270257,-0.0047
 6740,-0.00228628,0.,0.,0.,0.,0.,0.,0.,0.,0.,0.,0.,0.,0.,0.,0.,0.,0.,0.
 ,0.,0.,0.,0.,0.,0.,0.,0.,0.,0.,0.,0.,0.,0.,0.,0.,0.,0.,0.,0.,0.,0.,0.,
 0.,0.,0.,0.,0.,0.,0.,0.,0.,0.,0.,0.,0.,0.,0.,0.,0.,0.,0.,0.,0.,0.,0.,0
 .,0.,0.,0.,0.,0.,0.,0.,0.,0.,0.,0.,0.,0.,0.,0.,0.,0.,0.,0.,0.,0.,0.,0.
 ,0.,0.,0.,0.,0.,0.00426062,0.00452204,0.00153197,0.00289217,0.00066042
 ,-0.00507415,0.00016931,0.00022372,0.00000478,-0.00028737,0.00001368,0
 .00018627,0.00035407,0.00004942,0.00031461,-0.00040187,0.00011593,-0.0
 0236474,-0.00159071,-0.00036109,0.00447158,-0.00079828,0.00071231,-0.0
 0273403,0.00655366,-0.00734414,-0.00823343,-0.00230926,-0.00287894,0.0
 0163660,-0.08863970,-0.01292798,0.05115629,-0.00010376,-0.00009553,0.0
 0003193,0.00004691,-0.00001743,-0.00002097,-0.00002262,-0.00004733,-0.
 00009654,0.00007073,0.00012217,0.00027306,0.00016226,-0.00014281,0.000
 28172,0.00016862,-0.00000485,0.00038285,-0.00010612,0.00005300,-0.0000
 3403,-0.00373275,0.00028190,0.00170430,0.00045012,0.00016255,-0.000000
 81,-0.00069392,0.00137033,-0.00007165,-0.00146439,-0.00075678,-0.00119
 264,0.00036593,-0.00083164,-0.00132002,-0.00078027,-0.00058439,0.00054
 900,-0.00045295,0.00235850,0.00266076,0.00030181,0.00009482,0.00012134
 ,0.00034454,-0.00031579,0.00032081,-0.00019389,0.00021833,-0.00061151,
 -0.00005944,0.00026047,-0.00074067,0.00064915,-0.00078986,-0.00012380,
 -0.00039501,0.00004773,-0.00009694,-0.00008012,0.00010514,0.00002229,0
 .00022561,0.00006127,0.00000077,-0.00006876,-0.00012867,-0.00005476,0.
 00006102,-0.00011475,-0.00004619,0.00004295,0.00000540,-0.00001012,0.0
 0028920,-0.00004070,-0.00024801,0.00012380,-0.00007716,0.00035935,-0.0
 0018832,-0.00023129,-0.00013510,0.00010386,0.00036930,0.00017853,-0.00
 001948,-0.00032613,-0.00005411,-0.00006321,-0.00098842,-0.00031802,-0.
 00078480,0.00138859,0.00003366,-0.00114859,0.00039501,0.00118630,0.000
 33094,0.00009699,-0.00021444,0.00026401,-0.00000429,-0.00012739,-0.001
 49602,-0.00138359,-0.00041531,0.00002370,-0.00018591,-0.00027791,0.000
 10122,0.00005863,0.00013398,-0.00021622,0.00000425,0.00011682,0.000436
 03,0.00172999,0.00007203,-0.23426052,0.02598917,0.18523036,0.31697717,
 0.00013123,-0.00077611,-0.00022240,0.00004877,0.00117672,0.00070257,0.
 00197975,0.00421498,-0.00181224,0.,0.,0.,0.,0.,0.,0.,0.,0.,-0.00188407
 ,-0.00144093,0.00050623,0.,0.,0.,0.,0.,0.,0.,0.,0.,0.,0.,0.,0.,0.,0.,0
 .,0.,0.,0.,0.,0.,0.,0.,0.,0.,0.,0.,0.,0.,0.,0.,0.,0.,0.,0.,0.,0.,0.,0.
 ,0.,0.,0.,0.,0.,0.,0.,0.,0.,0.,0.,0.,0.,0.,0.,0.,0.,0.,0.,0.,0.,0.,0.,
 0.,0.,0.,0.,0.,0.,0.,0.,0.,0.,0.,0.,0.,0.,0.,0.,0.,0.,0.,0.,0.,0.,0.,0
 .,0.,0.,0.,0.,0.,0.,0.,-0.00078869,-0.00112005,-0.00065146,-0.00202010
 ,-0.00324879,0.00399648,0.00012334,-0.00012751,-0.00014942,0.00003604,
 0.00002096,0.00000343,-0.00002668,0.00001198,0.00004394,-0.00005596,-0
 .00014863,0.00017458,0.00090889,0.00041930,0.00020769,-0.00086527,-0.0
 0034847,-0.00073125,-0.00078623,0.00297979,-0.00309947,-0.00189730,-0.
 00110500,0.00097108,-0.02123063,0.01468944,0.01291276,0.00000475,-0.00
 000295,-0.00001646,-0.00000958,-0.00000589,-0.00001000,-0.00000075,-0.
 00000715,-0.00000626,-0.00001261,0.00004696,0.00001706,-0.00001943,-0.
 00000287,-0.00000478,-0.00025222,0.00036659,0.00038856,0.00007216,-0.0
 0036795,-0.00000243,-0.00002875,-0.00004942,-0.00008694,0.00009256,-0.
 00001567,0.00005158,-0.00029963,0.00066733,-0.00014034,-0.00056420,0.0
 0021198,-0.00024723,-0.00022300,-0.00027857,-0.00053733,-0.00033817,-0
 .00039956,-0.00029626,0.00089418,-0.00114912,0.00041370,-0.00028545,-0
 .00016398,-0.00023166,-0.00033248,0.00019498,-0.00014250,0.00011354,-0
 .00012039,0.00000507,-0.00012538,0.00031642,-0.00019774,0.00045853,-0.
 00000529,0.00003007,-0.00020643,-0.00000873,-0.00007524,-0.00008756,-0
 .00002038,-0.00009374,0.00000670,-0.00004445,0.00000590,-0.00006441,-0
 .00003214,-0.00007150,0.00003122,0.00002532,0.00004192,0.00007088,0.00
 004289,-0.00001263,0.00070791,-0.00087337,0.00045257,-0.00069603,-0.00
 018488,0.00071995,-0.00049122,-0.00005089,-0.00032549,0.00008855,-0.00
 012046,-0.00027871,-0.00026310,-0.00081417,0.00000763,-0.00003889,-0.0
 0028832,-0.00016181,0.00077504,0.00006133,-0.00095673,0.00002952,-0.00
 003275,0.00009431,-0.00006769,-0.00004856,0.00009045,-0.00005325,-0.00
 000407,0.00004472,0.00033936,0.00051909,0.00042407,0.00001659,0.000035
 91,0.00000775,-0.00008944,-0.00002321,-0.00009394,0.00001591,0.0000378
 0,-0.00003761,0.00021977,0.00043152,-0.00004623,0.02818594,-0.09211425
 ,-0.04430451,-0.01611866,0.06410284,-0.00205177,0.00005228,-0.00036058
 ,0.00398727,0.00287992,0.00140265,0.02240103,0.00059928,-0.01278799,0.
 ,0.,0.,0.,0.,0.,0.,0.,0.,-0.00434623,0.00417964,0.00105352,0.,0.,0.,0.
 ,0.,0.,0.,0.,0.,0.,0.,0.,0.,0.,0.,0.,0.,0.,0.,0.,0.,0.,0.,0.,0.,0.,0.,
 0.,0.,0.,0.,0.,0.,0.,0.,0.,0.,0.,0.,0.,0.,0.,0.,0.,0.,0.,0.,0.,0.,0.,0
 .,0.,0.,0.,0.,0.,0.,0.,0.,0.,0.,0.,0.,0.,0.,0.,0.,0.,0.,0.,0.,0.,0.,0.
 ,0.,0.,0.,0.,0.,0.,0.,0.,0.,0.,0.,0.,0.,0.,0.,0.,0.,0.,0.,-0.00521996,
 -0.00535301,-0.00225532,-0.01125306,0.00124713,0.00904779,-0.00026216,
 -0.00031848,-0.00002053,0.00025724,0.00002212,-0.00015026,-0.00031344,
 -0.00001111,-0.00011007,0.00004570,-0.00021757,0.00208296,0.00311833,0
 .00125505,-0.00243895,-0.00266370,-0.00177892,0.00076699,-0.00456078,0
 .00047450,0.00684495,0.00101632,0.00099160,-0.00149800,0.03893413,0.00
 769242,0.00044367,0.00009238,0.00006184,-0.00005442,-0.00004442,-0.000
 00161,0.00001625,0.00004747,0.00002208,0.00005612,-0.00010123,-0.00001
 464,-0.00014197,-0.00012541,0.00004272,-0.00018034,-0.00070540,0.00075
 598,0.00075681,-0.00002787,-0.00061916,0.00024090,0.00156889,0.0000132
 0,-0.00040542,0.00008021,-0.00001657,-0.00000183,0.00037261,-0.0006425
 9,0.00007700,-0.00058197,-0.00017154,0.00043577,-0.00057538,-0.0004509
 0,0.00057106,0.00042614,-0.00013865,-0.00029513,0.00078677,0.00008554,
 -0.00356536,-0.00091537,-0.00036040,-0.00067307,0.00009392,0.00007538,
 -0.00018129,0.00056816,-0.00016096,0.00094170,-0.00041898,-0.00007618,
 0.00016005,0.00017899,-0.00012788,0.00031595,0.00001569,0.00002190,-0.
 00012816,0.00015178,-0.00002077,0.00007622,-0.00017923,-0.00001313,-0.
 00006960,-0.00002534,-0.00005238,0.00000598,-0.00000535,0.00012407,0.0
 0004529,-0.00003880,-0.00009797,0.00007393,-0.00074886,0.00136395,-0.0
 0114953,0.00057396,-0.00034917,0.00064551,0.00039167,0.00001048,0.0003
 8667,0.00004019,-0.00042713,-0.00029918,-0.00007615,-0.00018716,0.0001
 0582,-0.00003170,0.00113102,0.00021618,-0.00056006,-0.00189689,-0.0015
 8519,0.00089409,-0.00041678,-0.00070637,-0.00033875,-0.00017265,0.0002
 9980,-0.00036707,-0.00036768,-0.00006267,0.00221534,0.00281597,0.00075
 059,0.00003459,0.00021349,0.00027976,-0.00024374,-0.00014592,-0.000244
 43,0.00025815,0.00003254,0.00007456,0.00033072,-0.00078240,0.00040568,
 0.19143225,-0.04273557,-0.33590683,-0.27256175,0.07424328,0.42828453,0
 .00042320,-0.00023605,-0.00071792,-0.00035691,0.00014830,0.00070538,-0
 .00013524,0.00034796,0.00061928,0.,0.,0.,0.,0.,0.,0.,0.,0.,-0.00026188
 ,-0.00085208,-0.00072517,0.,0.,0.,0.,0.,0.,0.,0.,0.,0.,0.,0.,0.,0.,0.,
 0.,0.,0.,0.,0.,0.,0.,0.,0.,0.,0.,0.,0.,0.,0.,0.,0.,0.,0.,0.,0.,0.,0.,0
 .,0.,0.,0.,0.,0.,0.,0.,0.,0.,0.,0.,0.,0.,0.,0.,0.,0.,0.,0.,0.,0.,0.,0.
 ,0.,0.,0.,0.,0.,0.,0.,0.,0.,0.,0.,0.,0.,0.,0.,0.,0.,0.,0.,0.,0.,0.,0.,
 0.,0.,0.,0.,0.,0.,0.,0.,-0.00003656,0.00000819,-0.00030917,0.00046489,
 -0.00013220,-0.00056498,0.00002618,-0.00003512,-0.00002463,-0.00021328
 ,0.00004060,0.00014461,0.00026741,0.00002355,0.00033419,-0.00042176,0.
 00000981,-0.00248913,-0.00237786,-0.00196229,0.00305492,-0.00207921,0.
 00232009,0.00181049,0.01037141,0.00003299,-0.00522187,0.00003419,-0.00
 121146,0.00074531,-0.03045952,-0.03903101,-0.04663293,-0.00007109,-0.0
 0008323,0.00001116,0.00002951,-0.00002220,-0.00001397,0.00000185,-0.00
 004252,-0.00008369,0.00012247,0.00019851,0.00016026,0.00013647,-0.0001
 7701,0.00026069,-0.00363111,-0.00192319,0.00136162,-0.00053093,-0.0004
 3998,0.00039728,-0.00061283,0.00018351,0.00015523,0.00028957,0.0000786
 7,0.00007918,-0.00024086,0.00053378,0.00008377,-0.00010963,-0.00000698
 ,-0.00007848,-0.00125939,0.00130654,0.00272618,0.00002276,-0.00062996,
 -0.00045930,-0.00014261,0.00022716,-0.00252929,-0.00102902,-0.00052834
 ,-0.00078840,0.00011276,-0.00005852,0.00002282,0.00019609,-0.00018029,
 0.00122322,-0.00070495,-0.00003453,0.00001201,0.00052156,-0.00020128,0
 .00028641,-0.00014622,0.00002576,-0.00013440,0.00003927,0.00005650,0.0
 0006082,0.00000156,0.00003312,-0.00005908,-0.00007626,-0.00007660,-0.0
 0003525,0.00005379,0.00002470,0.00001334,0.00001290,-0.00005203,0.0000
 4748,-0.00008218,0.00051272,-0.00090049,0.00005041,0.00016601,0.000543
 39,0.00002513,-0.00015040,0.00009416,0.00013800,-0.00001038,-0.0000349
 3,-0.00008596,-0.00021778,0.00011545,-0.00015663,0.00003637,-0.0001682
 8,-0.00015851,0.00015789,-0.00044947,0.00073343,-0.00120099,-0.0002918
 7,-0.00035100,-0.00017596,0.00019424,-0.00063564,-0.00061126,-0.000222
 11,-0.00220169,-0.00061449,0.00014666,0.00004616,-0.00003149,-0.000049
 46,-0.00019379,-0.00006882,-0.00031166,0.00006974,0.00007606,0.0001743
 1,-0.00156437,0.00240101,-0.00019916,-0.11400792,-0.03681673,-0.060675
 36,0.02382036,0.01292130,0.03501198,0.12646672,-0.00016559,-0.00043981
 ,-0.00029145,0.00053029,0.00110024,0.00069824,0.00288009,0.00074489,-0
 .00106661,0.,0.,0.,0.,0.,0.,0.,0.,0.,-0.00124308,0.00008383,0.00023409
 ,0.,0.,0.,0.,0.,0.,0.,0.,0.,0.,0.,0.,0.,0.,0.,0.,0.,0.,0.,0.,0.,0.,0.,
 0.,0.,0.,0.,0.,0.,0.,0.,0.,0.,0.,0.,0.,0.,0.,0.,0.,0.,0.,0.,0.,0.,0.,0
 .,0.,0.,0.,0.,0.,0.,0.,0.,0.,0.,0.,0.,0.,0.,0.,0.,0.,0.,0.,0.,0.,0.,0.
 ,0.,0.,0.,0.,0.,0.,0.,0.,0.,0.,0.,0.,0.,0.,0.,0.,0.,0.,0.,0.,0.,0.,0.,
 -0.00128651,-0.00129491,-0.00039854,-0.00357112,-0.00027512,0.00191999
 ,0.00001194,-0.00013584,-0.00012021,-0.00006246,0.00003644,0.00006921,
 0.00009669,0.00005006,0.00020635,-0.00023319,-0.00035476,-0.00086977,-
 0.00078798,0.00136414,0.00148302,-0.00017386,-0.00269084,-0.00008234,0
 .00898495,-0.00176762,-0.00657466,-0.00303961,-0.00321109,0.00020292,-
 0.04010092,-0.00532701,-0.03266616,-0.00003011,-0.00004200,-0.00001421
 ,0.00000197,-0.00000730,-0.00002381,-0.00003006,-0.00002916,-0.0000325
 5,0.00002177,0.00013390,0.00015315,0.00006393,0.00000642,0.00005046,-0
 .00102359,0.00022344,0.00210459,-0.00094981,0.00100235,0.00009808,-0.0
 0089803,0.00029403,0.00032469,0.00061331,0.00027648,0.00015802,-0.0003
 5108,0.00108844,0.00021509,-0.00018741,0.00011844,-0.00026419,0.000020
 73,-0.00059260,0.00112084,0.00010157,0.00034303,0.00034750,-0.00038623
 ,-0.00151377,-0.00154956,-0.00046979,0.00005109,-0.00037161,-0.0004191
 6,0.00019299,-0.00000783,0.00004596,-0.00061705,-0.00021960,0.00014652
 ,0.00010502,-0.00012522,0.00027715,0.00036661,0.00073431,-0.00001778,0
 .00001548,-0.00015710,0.00002645,-0.00010036,-0.00010525,-0.00029371,-
 0.00007288,-0.00002618,-0.00007701,-0.00001502,-0.00001815,0.00005282,
 0.00015706,0.00008858,0.00001138,-0.00000085,0.00005022,-0.00002964,0.
 00066731,-0.00018051,0.00045913,-0.00036846,0.00063180,0.00005680,0.00
 005180,0.00001671,-0.00000073,-0.00025169,-0.00017647,-0.00048570,-0.0
 0032165,0.00027158,-0.00026533,0.00111761,0.00002098,-0.00001335,-0.00
 109388,-0.00106529,0.00043740,-0.00188794,-0.00161020,-0.00090808,-0.0
 0074108,0.00059511,-0.00074314,-0.00056496,-0.00011560,0.00031640,0.00
 036271,0.00155877,0.00008227,0.00007701,0.00019541,-0.00039331,0.00002
 106,-0.00073446,0.00001667,0.00011118,-0.00018703,0.00349318,-0.000044
 73,0.00071767,-0.03758135,-0.17107197,-0.16961956,0.01131227,0.0175435
 6,-0.03920961,0.06529056,0.16583009,-0.00091396,-0.00020660,-0.0004474
 1,0.00183902,0.00149273,0.00089943,0.00649951,0.00112145,-0.00273699,0
 .,0.,0.,0.,0.,0.,0.,0.,0.,-0.00292615,0.00110973,0.00050132,0.,0.,0.,0
 .,0.,0.,0.,0.,0.,0.,0.,0.,0.,0.,0.,0.,0.,0.,0.,0.,0.,0.,0.,0.,0.,0.,0.
 ,0.,0.,0.,0.,0.,0.,0.,0.,0.,0.,0.,0.,0.,0.,0.,0.,0.,0.,0.,0.,0.,0.,0.,
 0.,0.,0.,0.,0.,0.,0.,0.,0.,0.,0.,0.,0.,0.,0.,0.,0.,0.,0.,0.,0.,0.,0.,0
 .,0.,0.,0.,0.,0.,0.,0.,0.,0.,0.,0.,0.,0.,0.,0.,0.,0.,0.,0.,-0.00286820
 ,-0.00244814,-0.00075771,-0.00818084,-0.00099777,0.00495788,-0.0001388
 3,-0.00018894,-0.00005132,0.00018836,0.00005860,-0.00007217,-0.0002259
 1,0.00004128,0.00014234,-0.00040088,-0.00023978,0.00137234,0.00572877,
 0.00254710,0.00072941,-0.00288873,-0.00116493,-0.00424208,0.00931658,-
 0.00133481,-0.00995338,-0.00266132,-0.00158241,0.00143448,-0.04188499,
 -0.03175863,-0.01437045,0.00005573,0.00001457,-0.00006453,-0.00002972,
 -0.00002721,0.00000625,0.00007944,-0.00001208,-0.00000858,-0.00015840,
 0.00011187,0.00006202,-0.00006220,-0.00011143,-0.00001683,0.00077731,0
 .00306464,0.00115120,0.00062655,-0.00184755,-0.00011975,-0.00138005,0.
 00030243,0.00141190,0.00080136,-0.00023520,0.00029154,-0.00065545,0.00
 104750,-0.00009226,0.00013234,-0.00021861,0.00046188,0.00001916,0.0003
 1462,-0.00009409,0.00040589,0.00022372,-0.00142926,-0.00110678,-0.0011
 7113,-0.00323062,-0.00032724,-0.00026679,-0.00014345,-0.00017436,0.000
 16475,-0.00015170,0.00073835,-0.00046189,0.00170189,-0.00077144,-0.000
 23205,0.00067480,-0.00000553,0.00038660,0.00054470,0.00014257,-0.00000
 030,-0.00007799,0.00018701,-0.00004966,0.00006780,-0.00030451,-0.00003
 307,-0.00004777,-0.00003885,0.00000968,0.00001686,0.00001428,0.0001876
 9,0.00006664,-0.00004596,-0.00008319,0.00009245,-0.00078029,0.00090840
 ,-0.00110569,0.00023580,-0.00035819,0.00018019,0.00029711,0.00005370,0
 .00027465,0.00008146,-0.00035098,-0.00007615,-0.00000779,0.00003566,0.
 00018527,-0.00012868,0.00066881,-0.00003839,-0.00068058,-0.00209115,-0
 .00038762,-0.00011520,-0.00273360,-0.00093447,-0.00035339,-0.00004464,
 0.00067479,-0.00095578,-0.00079323,-0.00007157,0.00262466,0.00420470,-
 0.00007808,0.00006455,0.00032658,0.00033422,-0.00036312,-0.00024565,-0
 .00035618,0.00045456,0.00007494,0.00012876,0.00062913,0.00108772,0.000
 78611,-0.06775495,-0.17297432,-0.43566144,0.03278394,-0.03953946,-0.09
 069718,0.07224314,0.24275364,0.54634862\\0.,0.,0.,0.,0.,0.,0.,0.,0.,0.
 ,0.,0.,0.,0.,0.,0.,0.,0.,0.,0.,0.,0.,0.,0.,0.,0.,0.,0.,0.,0.,0.,0.,0.,
 0.,0.,0.,0.,0.,0.,0.,0.,0.,0.,0.,0.,0.,0.,0.,0.,0.,0.,0.,0.,0.,0.,0.,0
 .,0.,0.,0.,0.,0.,0.,0.,0.,0.,0.,0.,0.,0.,0.,0.,0.,0.,0.,0.,0.,0.,0.,0.
 ,0.,0.,0.,0.,0.,0.,0.,0.,0.,0.,0.,0.,0.,0.,0.,0.,0.,0.,0.,0.,0.,0.,0.,
 0.,0.,0.,0.,0.,0.,0.,0.,0.,0.,0.,0.,0.,0.,0.,0.,0.,0.,0.,0.,0.,0.,0.,0
 .,0.,0.,0.,0.,0.,0.,0.,0.,0.,0.,0.,0.,0.,0.,0.,0.,0.,0.,0.,0.,0.,0.,0.
 ,0.,0.,0.,0.,0.,0.,0.,0.,0.,0.,0.,0.,0.,0.,0.,0.,0.,0.,0.,0.,0.,0.,0.,
 0.,0.,0.,0.,0.,0.,0.,0.,0.,0.,0.,0.,0.,0.,0.,0.,0.,0.,0.,0.,0.,0.,0.,0
 .,0.,0.,0.,0.,0.,0.,0.,0.,0.,0.,0.,0.,0.,0.,0.,0.,0.,0.,0.,0.,0.,0.,0.
 ,0.,0.,0.,0.,0.,0.,0.,0.,0.,0.,0.,0.,0.,0.,0.,0.,0.,0.,0.,0.,0.,0.,0.,
 0.,0.,0.,0.,0.,0.,0.,0.,0.,0.,0.,0.,0.,0.,0.,0.,0.,0.,0.,0.,0.,0.,0.,0
 .,0.,0.,0.,0.,0.,0.,0.,0.,0.\\\@


 WE TEND TO MEET ANY NEW SITUATION BY REORGANIZING. IT CAN BE A
 WONDERFUL METHOD FOR CREATING THE ILLUSION OF PROGRESS WHILE PRODUCING
 CONFUSION, INEFFICIENCY, AND DEMORALIZATION.
     -- PETRONIUS ARBITER, 210 B.C.
 Job cpu time:       5 days 12 hours 28 minutes 30.0 seconds.
 Elapsed time:       0 days  2 hours  7 minutes  5.5 seconds.
 File lengths (MBytes):  RWF=   7183 Int=      0 D2E=      0 Chk=     85 Scr=      2
 Normal termination of Gaussian 16 at Thu Oct 12 06:38:43 2023.
