 Entering Gaussian System, Link 0=g16
 Input=OH_opt_freq_re.com
 Output=OH_opt_freq_re.log
 Initial command:
 /opt/ohpc/pub/apps/gaussian/avx2/g16/l1.exe "/scratch/g16-tmp/Gau-722649.inp" -scrdir="/scratch/g16-tmp/"
 Entering Link 1 = /opt/ohpc/pub/apps/gaussian/avx2/g16/l1.exe PID=    722650.
  
 Copyright (c) 1988-2017, Gaussian, Inc.  All Rights Reserved.
  
 This is part of the Gaussian(R) 16 program.  It is based on
 the Gaussian(R) 09 system (copyright 2009, Gaussian, Inc.),
 the Gaussian(R) 03 system (copyright 2003, Gaussian, Inc.),
 the Gaussian(R) 98 system (copyright 1998, Gaussian, Inc.),
 the Gaussian(R) 94 system (copyright 1995, Gaussian, Inc.),
 the Gaussian 92(TM) system (copyright 1992, Gaussian, Inc.),
 the Gaussian 90(TM) system (copyright 1990, Gaussian, Inc.),
 the Gaussian 88(TM) system (copyright 1988, Gaussian, Inc.),
 the Gaussian 86(TM) system (copyright 1986, Carnegie Mellon
 University), and the Gaussian 82(TM) system (copyright 1983,
 Carnegie Mellon University). Gaussian is a federally registered
 trademark of Gaussian, Inc.
  
 This software contains proprietary and confidential information,
 including trade secrets, belonging to Gaussian, Inc.
  
 This software is provided under written license and may be
 used, copied, transmitted, or stored only in accord with that
 written license.
  
 The following legend is applicable only to US Government
 contracts under FAR:
  
                    RESTRICTED RIGHTS LEGEND
  
 Use, reproduction and disclosure by the US Government is
 subject to restrictions as set forth in subparagraphs (a)
 and (c) of the Commercial Computer Software - Restricted
 Rights clause in FAR 52.227-19.
  
 Gaussian, Inc.
 340 Quinnipiac St., Bldg. 40, Wallingford CT 06492
  
  
 ---------------------------------------------------------------
 Warning -- This program may not be used in any manner that
 competes with the business of Gaussian, Inc. or will provide
 assistance to any competitor of Gaussian, Inc.  The licensee
 of this program is prohibited from giving any competitor of
 Gaussian, Inc. access to this program.  By using this program,
 the user acknowledges that Gaussian, Inc. is engaged in the
 business of creating and licensing software in the field of
 computational chemistry and represents and warrants to the
 licensee that it is not a competitor of Gaussian, Inc. and that
 it will not use this program in any manner prohibited above.
 ---------------------------------------------------------------
  

 Cite this work as:
 Gaussian 16, Revision B.01,
 M. J. Frisch, G. W. Trucks, H. B. Schlegel, G. E. Scuseria, 
 M. A. Robb, J. R. Cheeseman, G. Scalmani, V. Barone, 
 G. A. Petersson, H. Nakatsuji, X. Li, M. Caricato, A. V. Marenich, 
 J. Bloino, B. G. Janesko, R. Gomperts, B. Mennucci, H. P. Hratchian, 
 J. V. Ortiz, A. F. Izmaylov, J. L. Sonnenberg, D. Williams-Young, 
 F. Ding, F. Lipparini, F. Egidi, J. Goings, B. Peng, A. Petrone, 
 T. Henderson, D. Ranasinghe, V. G. Zakrzewski, J. Gao, N. Rega, 
 G. Zheng, W. Liang, M. Hada, M. Ehara, K. Toyota, R. Fukuda, 
 J. Hasegawa, M. Ishida, T. Nakajima, Y. Honda, O. Kitao, H. Nakai, 
 T. Vreven, K. Throssell, J. A. Montgomery, Jr., J. E. Peralta, 
 F. Ogliaro, M. J. Bearpark, J. J. Heyd, E. N. Brothers, K. N. Kudin, 
 V. N. Staroverov, T. A. Keith, R. Kobayashi, J. Normand, 
 K. Raghavachari, A. P. Rendell, J. C. Burant, S. S. Iyengar, 
 J. Tomasi, M. Cossi, J. M. Millam, M. Klene, C. Adamo, R. Cammi, 
 J. W. Ochterski, R. L. Martin, K. Morokuma, O. Farkas, 
 J. B. Foresman, and D. J. Fox, Gaussian, Inc., Wallingford CT, 2016.
 
 ******************************************
 Gaussian 16:  ES64L-G16RevB.01 20-Dec-2017
                11-May-2023 
 ******************************************
 %nprocshared=64
 Will use up to   64 processors via shared memory.
 %mem=64GB
 %chk=OH_opt_freq_re.chk
 ----------------------------------------------------------------------
 # opt=(calcall,tight,cartesian) freq b3lyp/gen nosymm scf=(qc,maxcycle
 =1024) pseudo=read
 ----------------------------------------------------------------------
 1/7=10,10=4,18=10,26=3,38=1/1,3;
 2/12=2,15=1,17=6,18=5,29=2,40=1/2;
 3/5=7,11=2,16=1,17=8,25=1,30=1,71=2,74=-5,140=1/1,2,3;
 4//1;
 5/5=2,7=1024,8=3,38=5/8;
 8/6=4,10=90,11=11/1;
 11/6=1,8=1,9=11,15=111,16=1,31=1/1,2,10;
 10/6=1,31=1/2;
 6/7=2,8=2,9=2,10=2,18=1,28=1/1;
 7/7=1,10=1,25=1,30=1/1,2,3,16;
 1/7=10,10=4,18=10,26=3/3(3);
 2/15=1,29=1/2;
 7/7=1,8=1,9=1,25=1,30=1,44=-1/16;
 99/12=1/99;
 2/15=1,29=1/2;
 3/5=7,6=1,11=2,16=1,17=8,25=1,30=1,71=2,74=-5,82=7,140=1/1,2,3;
 4/5=5,16=3,69=1/1;
 5/5=2,7=1024,8=3,38=5/8;
 8/6=4,10=90,11=11/1;
 11/6=1,8=1,9=11,15=111,16=1,31=1/1,2,10;
 10/6=1,31=1/2;
 7/7=1,10=1,25=1,30=1/1,2,3,16;
 1/7=10,10=4,18=10,26=3/3(-8);
 2/15=1,29=1/2;
 6/7=2,8=2,9=2,10=2,18=1,19=2,28=1/1;
 7/7=1,8=1,9=1,25=1,30=1,44=-1/16;
 99/12=1/99;
 --------------
 OH_opt_freq_re
 --------------
 Symbolic Z-matrix:
 Charge =  0 Multiplicity = 1
 Zn                   -1.41936   0.00292   0.0426 
 O                    -1.13767   1.22951   1.61964 
 O                     1.32694   1.24348   1.67175 
 O                    -1.01341   1.58758  -1.37365 
 O                     1.2372    1.72933  -1.16086 
 C                     0.1165    2.07924  -1.63766 
 Zn                    1.63681  -0.01011   0.00407 
 O                     1.31952  -1.16172  -1.67782 
 O                    -0.93055  -1.3276   -1.53625 
 O                     1.20754  -1.64922   1.23473 
 O                    -1.05192  -1.62096   1.34789 
 C                     0.19003  -1.59558  -2.04492 
 C                     0.08343  -2.08032   1.63292 
 H                     0.13714   2.91466  -2.35931 
 H                     0.19382  -2.28425  -2.90739 
 H                     0.10663  -2.95585   2.30393 
 C                     4.39365  -0.93164   0.73235 
 C                     5.78345  -0.94109   0.81385 
 C                     6.49866   0.06499   0.1611 
 C                     5.80438   1.04639  -0.54976 
 C                     4.41472   0.98346  -0.58685 
 N                     3.73366   0.0119    0.0416 
 H                     7.58282   0.08421   0.20475 
 H                     3.77335  -1.67816   1.22173 
 H                     6.28452  -1.72063   1.37742 
 H                     6.32155   1.8462   -1.06864 
 H                     3.81136   1.71231  -1.12218 
 C                    -4.18988  -0.92486   0.65009 
 C                    -5.58145  -0.95441   0.65984 
 C                    -6.27491  -0.06601  -0.1645 
 C                    -5.55756   0.82095  -0.97038 
 C                    -4.16692   0.78499  -0.92556 
 N                    -3.50785  -0.07419  -0.13269 
 H                    -7.3601   -0.06375  -0.1777 
 H                    -3.58617  -1.57969   1.27312 
 H                    -6.1003   -1.65661   1.3031 
 H                    -6.05793   1.52979  -1.62112 
 H                    -3.54504   1.44754  -1.5221 
 H                     0.29051   1.16084   1.89476 
 H                     1.40092   2.17098   1.40689 
 H                    -1.26586   2.14712   1.34768 
 

 GradGradGradGradGradGradGradGradGradGradGradGradGradGradGradGradGradGrad
 Berny optimization.
 Initialization pass.
 No Z-matrix variables, so optimization will use Cartesian coordinates.
 Trust Radius=3.00D-01 FncErr=1.00D-07 GrdErr=1.00D-06 EigMax=2.50D+02 EigMin=1.00D-04
 Number of steps in this run=    133 maximum allowed number of steps=    246.
 GradGradGradGradGradGradGradGradGradGradGradGradGradGradGradGradGradGrad

 ---------------------------------------------------------------------------------------------------
                            Z-MATRIX (ANGSTROMS AND DEGREES)
   CD    Cent   Atom    N1       Length/X        N2       Alpha/Y        N3        Beta/Z          J
 ---------------------------------------------------------------------------------------------------
      1      1  Zn       0  -1.419363          0.002924          0.042601
      2      2  O        0  -1.137669          1.229509          1.619638
      3      3  O        0   1.326940          1.243477          1.671745
      4      4  O        0  -1.013406          1.587584         -1.373646
      5      5  O        0   1.237200          1.729332         -1.160861
      6      6  C        0   0.116497          2.079237         -1.637661
      7      7  Zn       0   1.636807         -0.010107          0.004072
      8      8  O        0   1.319520         -1.161722         -1.677815
      9      9  O        0  -0.930550         -1.327599         -1.536252
     10     10  O        0   1.207538         -1.649223          1.234725
     11     11  O        0  -1.051921         -1.620962          1.347891
     12     12  C        0   0.190028         -1.595583         -2.044921
     13     13  C        0   0.083427         -2.080316          1.632922
     14     14  H        0   0.137141          2.914662         -2.359310
     15     15  H        0   0.193817         -2.284252         -2.907389
     16     16  H        0   0.106633         -2.955849          2.303928
     17     17  C        0   4.393655         -0.931641          0.732351
     18     18  C        0   5.783445         -0.941085          0.813846
     19     19  C        0   6.498656          0.064992          0.161098
     20     20  C        0   5.804380          1.046388         -0.549756
     21     21  C        0   4.414720          0.983456         -0.586850
     22     22  N        0   3.733659          0.011899          0.041595
     23     23  H        0   7.582820          0.084206          0.204753
     24     24  H        0   3.773345         -1.678157          1.221728
     25     25  H        0   6.284517         -1.720627          1.377420
     26     26  H        0   6.321551          1.846198         -1.068635
     27     27  H        0   3.811360          1.712314         -1.122176
     28     28  C        0  -4.189881         -0.924858          0.650092
     29     29  C        0  -5.581449         -0.954410          0.659842
     30     30  C        0  -6.274907         -0.066006         -0.164499
     31     31  C        0  -5.557563          0.820952         -0.970382
     32     32  C        0  -4.166923          0.784994         -0.925563
     33     33  N        0  -3.507853         -0.074186         -0.132691
     34     34  H        0  -7.360101         -0.063745         -0.177696
     35     35  H        0  -3.586172         -1.579687          1.273115
     36     36  H        0  -6.100305         -1.656612          1.303101
     37     37  H        0  -6.057929          1.529794         -1.621115
     38     38  H        0  -3.545035          1.447543         -1.522102
     39     39  H        0   0.290514          1.160844          1.894764
     40     40  H        0   1.400921          2.170985          1.406885
     41     41  H        0  -1.265857          2.147125          1.347683
 ---------------------------------------------------------------------------------------------------
                         Z-Matrix orientation:                         
 ---------------------------------------------------------------------
 Center     Atomic      Atomic             Coordinates (Angstroms)
 Number     Number       Type             X           Y           Z
 ---------------------------------------------------------------------
      1         30           0       -1.419363    0.002924    0.042601
      2          8           0       -1.137669    1.229509    1.619638
      3          8           0        1.326940    1.243477    1.671745
      4          8           0       -1.013406    1.587584   -1.373646
      5          8           0        1.237200    1.729332   -1.160861
      6          6           0        0.116497    2.079237   -1.637661
      7         30           0        1.636807   -0.010107    0.004072
      8          8           0        1.319520   -1.161722   -1.677815
      9          8           0       -0.930550   -1.327599   -1.536252
     10          8           0        1.207538   -1.649223    1.234725
     11          8           0       -1.051921   -1.620962    1.347891
     12          6           0        0.190028   -1.595583   -2.044921
     13          6           0        0.083427   -2.080316    1.632922
     14          1           0        0.137141    2.914662   -2.359310
     15          1           0        0.193817   -2.284252   -2.907389
     16          1           0        0.106633   -2.955849    2.303928
     17          6           0        4.393655   -0.931641    0.732351
     18          6           0        5.783445   -0.941085    0.813846
     19          6           0        6.498656    0.064992    0.161098
     20          6           0        5.804380    1.046388   -0.549756
     21          6           0        4.414720    0.983456   -0.586850
     22          7           0        3.733659    0.011899    0.041595
     23          1           0        7.582820    0.084206    0.204753
     24          1           0        3.773345   -1.678157    1.221728
     25          1           0        6.284517   -1.720627    1.377420
     26          1           0        6.321551    1.846198   -1.068635
     27          1           0        3.811360    1.712314   -1.122176
     28          6           0       -4.189881   -0.924858    0.650092
     29          6           0       -5.581449   -0.954410    0.659842
     30          6           0       -6.274907   -0.066006   -0.164499
     31          6           0       -5.557563    0.820952   -0.970382
     32          6           0       -4.166923    0.784994   -0.925563
     33          7           0       -3.507853   -0.074186   -0.132691
     34          1           0       -7.360101   -0.063745   -0.177696
     35          1           0       -3.586172   -1.579687    1.273115
     36          1           0       -6.100305   -1.656612    1.303101
     37          1           0       -6.057929    1.529794   -1.621115
     38          1           0       -3.545035    1.447543   -1.522102
     39          1           0        0.290514    1.160844    1.894764
     40          1           0        1.400921    2.170985    1.406885
     41          1           0       -1.265857    2.147125    1.347683
 ---------------------------------------------------------------------
                    Distance matrix (angstroms):
                    1          2          3          4          5
     1  Zn   0.000000
     2  O    2.017649   0.000000
     3  O    3.425677   2.465199   0.000000
     4  O    2.163725   3.017185   3.856168   0.000000
     5  O    3.389120   3.690664   2.875372   2.265082   0.000000
     6  C    3.081107   3.592348   3.621579   1.260201   1.267181
     7  Zn   3.056441   3.441572   2.109176   3.387381   2.131291
     8  O    3.437690   4.756991   4.123662   3.618528   2.938062
     9  O    2.121793   4.067105   4.690196   2.920890   3.766283
    10  O    3.324358   3.732995   2.927961   4.713079   4.141781
    11  O    2.115609   2.864679   3.737495   4.207495   4.770575
    12  C    3.082712   4.813826   4.813152   3.468633   3.596275
    13  C    3.021157   3.527916   3.549004   4.867852   4.863109
    14  H    4.082903   4.505209   4.523039   2.014058   2.012813
    15  H    4.066444   5.883311   5.890442   4.335997   4.499763
    16  H    4.024500   4.419702   4.418500   5.951623   5.935812
    17  C    5.927929   6.004448   3.875350   6.325980   4.541832
    18  C    7.305232   7.298123   5.036739   7.574726   5.630181
    19  C    7.919149   7.861100   5.515209   7.816956   5.674550
    20  C    7.322716   7.275428   5.002138   6.888679   4.658218
    21  C    5.949300   5.979812   3.834481   5.518022   3.313978
    22  N    5.153030   5.263329   3.156972   5.198107   3.260028
    23  H    9.004010   8.908454   6.529319   8.868291   6.696136
    24  H    5.583958   5.721094   3.837103   6.349332   4.870292
    25  H    8.006381   7.990671   5.783607   8.471854   6.619705
    26  H    8.034566   7.952803   5.728795   7.345850   5.086530
    27  H    5.624872   5.678339   3.768043   4.832925   2.574507
    28  C    2.984224   3.859704   6.015045   4.527458   6.306939
    29  C    4.315140   5.043599   7.319870   5.609262   7.550590
    30  C    4.860447   5.590413   7.929352   5.646219   7.787665
    31  C    4.338203   5.139123   7.386186   4.625982   6.857860
    32  C    3.016299   3.981460   6.094157   3.284752   5.491055
    33  N    2.097251   3.223050   5.326110   3.244028   5.179318
    34  H    5.945195   6.604663   8.977413   6.666162   8.837156
    35  H    2.951929   3.742570   5.680478   4.863751   6.335516
    36  H    5.123879   5.749578   7.981878   6.600479   8.448355
    37  H    5.159029   5.899289   8.090809   5.050920   7.312356
    38  H    3.008937   3.964023   5.829103   2.539842   4.804131
    39  H    2.773980   1.456062   1.063365   3.544689   3.249036
    40  H    3.809956   2.715894   0.967417   3.728362   2.610590
    41  H    2.514836   0.965614   2.764813   2.789704   3.568282
                    6          7          8          9         10
     6  C    0.000000
     7  Zn   3.061370   0.000000
     8  O    3.457267   2.062918   0.000000
     9  O    3.565547   3.271040   2.260613   0.000000
    10  O    4.831396   2.094154   2.955180   3.514708   0.000000
    11  O    4.895936   3.410273   3.871632   2.901564   2.262468
    12  C    3.698049   2.967369   1.264419   1.259466   3.434280
    13  C    5.291473   3.058089   3.651400   3.411509   1.268080
    14  H    1.104146   4.048314   4.298763   4.451311   5.906935
    15  H    4.545132   3.966177   2.009759   2.014796   4.311380
    16  H    6.394397   4.038337   4.532578   4.298131   2.015554
    17  C    5.742510   2.996636   3.913073   5.800905   3.304337
    18  C    6.873611   4.326322   5.116999   7.123909   4.649465
    19  C    6.929983   4.864964   5.631152   7.746832   5.664551
    20  C    5.882374   4.334925   5.124669   7.208902   5.619755
    21  C    4.558471   3.008846   3.920747   5.900360   4.531573
    22  N    4.491954   2.097303   3.187762   5.102813   3.250257
    23  H    7.944848   5.950146   6.657727   8.803508   6.686542
    24  H    5.972156   2.971510   3.833446   5.464062   2.566003
    25  H    7.846920   5.139375   5.856452   7.791094   5.079486
    26  H    6.235446   5.152028   5.868475   7.929982   6.608825
    27  H    3.748649   2.993969   3.844227   5.647853   4.861564
    28  C    5.727416   5.933330   5.985713   3.945319   5.477101
    29  C    6.851870   7.309238   7.289101   5.156836   6.848620
    30  C    6.900893   7.913707   7.820872   5.659989   7.775049
    31  C    5.850085   7.307474   7.192060   5.132809   7.531989
    32  C    4.530986   5.931247   5.869978   3.912812   6.283079
    33  N    4.476391   5.146876   5.183982   3.191163   5.156111
    34  H    7.913494   8.998904   8.876471   6.691945   8.826840
    35  H    5.964067   5.599425   5.740078   3.874070   4.794368
    36  H    7.826447   8.016318   8.011528   5.907329   7.308167
    37  H    6.198846   8.013831   7.853294   5.870427   8.429056
    38  H    3.717420   5.595126   5.522355   3.812761   6.306901
    39  H    3.654005   2.599682   4.383661   4.410807   3.028706
    40  H    3.305665   2.603976   4.541909   5.132047   3.828972
    41  H    3.290561   3.858030   5.175546   4.528048   4.532406
                   11         12         13         14         15
    11  O    0.000000
    12  C    3.613067   0.000000
    13  C    1.257483   3.711180   0.000000
    14  H    5.977382   4.521498   6.394576   0.000000
    15  H    4.483216   1.103689   4.546229   5.228031   0.000000
    16  H    2.009522   4.557386   1.103334   7.497307   5.255137
    17  C    5.523437   5.081785   4.550665   6.516926   5.719782
    18  C    6.889823   6.315634   5.870174   7.537669   6.848038
    19  C    7.827013   6.886423   6.922700   7.412284   7.394968
    20  C    7.597676   6.382513   6.875294   6.235586   6.937580
    21  C    6.356916   5.159984   5.751016   5.016857   5.820553
    22  N    5.222492   4.415299   4.498208   5.208197   5.147747
    23  H    8.875422   7.907977   7.935094   8.368037   8.360167
    24  H    4.827254   4.849533   3.734475   6.865843   5.498180
    25  H    7.337174   6.990769   6.216766   8.557995   7.468192
    26  H    8.498758   7.098913   7.850485   6.407370   7.615166
    27  H    6.392454   4.990760   5.989331   4.059067   5.678569
    28  C    3.289115   5.186190   4.534556   6.520854   5.806930
    29  C    4.629722   6.405997   5.857079   7.535733   6.917175
    30  C    5.655510   6.904417   6.907719   7.403779   7.368070
    31  C    5.624779   6.326854   6.856772   6.224339   6.817086
    32  C    4.545377   5.089512   5.728990   5.011595   5.688933
    33  N    3.258257   4.432335   4.476521   5.213159   5.126958
    34  H    6.674240   7.927011   7.921553   8.356972   8.333280
    35  H    2.535690   5.026858   3.721028   6.874354   5.679907
    36  H    5.048709   7.126097   6.207000   8.556608   7.598561
    37  H    6.618336   6.998897   7.831852   6.390750   7.435441
    38  H    4.885509   4.846096   5.963699   4.051145   5.461165
    39  H    3.136821   4.809273   3.258307   4.603971   5.910898
    40  H    4.516500   5.250549   4.456506   4.041586   6.318164
    41  H    3.774155   5.257112   4.446705   4.037241   6.314538
                   16         17         18         19         20
    16  H    0.000000
    17  C    4.994580   0.000000
    18  C    6.205305   1.392209   0.000000
    19  C    7.387500   2.398048   1.396352   0.000000
    20  C    7.525007   2.747097   2.410373   1.396593   0.000000
    21  C    6.514164   2.325582   2.745763   2.397038   1.391579
    22  N    5.203940   1.342761   2.388760   2.768087   2.389090
    23  H    8.339175   3.388374   2.158696   1.085213   2.158223
    24  H    4.030934   1.086996   2.179483   3.404530   3.832284
    25  H    6.367923   2.148016   1.084608   2.171113   3.406011
    26  H    8.547458   3.831021   3.406206   2.171705   1.084619
    27  H    6.874223   3.281590   3.831165   3.403237   2.177901
    28  C    5.031911   8.583933   9.974683  10.745406  10.257227
    29  C    6.250044   9.975394  11.365945  12.133296  11.623400
    30  C    7.427542  10.741130  12.129583  12.778384  12.136516
    31  C    7.554366  10.246835  11.614935  12.132771  11.371961
    32  C    6.533514   8.887014  10.247669  10.744943   9.981806
    33  N    5.225476   7.994833   9.379534  10.011788   9.388680
    34  H    8.383009  11.820838  13.210060  13.863495  13.216444
    35  H    4.073476   8.024340   9.402577  10.278390   9.919758
    36  H    6.419949  10.534445  11.915321  12.767220  12.347502
    37  H    8.574892  10.992410  12.339061  12.766744  11.920397
    38  H    6.882082   8.588706   9.908720  10.277176   9.408397
    39  H    4.141061   4.750312   5.979865   6.538158   6.032536
    40  H    5.363235   4.363226   5.407697   5.654564   4.948092
    41  H    5.370147   6.472056   7.714576   8.125941   7.402712
                   21         22         23         24         25
    21  C    0.000000
    22  N    1.342650   0.000000
    23  H    3.387055   3.853296   0.000000
    24  H    3.281235   2.061693   4.318826   0.000000
    25  H    3.829695   3.360499   2.513595   2.516352   0.000000
    26  H    2.147660   3.360721   2.513351   4.915302   4.325136
    27  H    1.087130   2.061992   4.316872   4.121969   4.914221
    28  C    8.900048   8.001892  11.824256   8.019177  10.529733
    29  C   10.258312   9.385479  13.213017   9.399558  11.912311
    30  C   10.749320  10.010991  13.863459  10.270736  12.761443
    31  C    9.980979   9.381123  13.213380   9.905389  12.337206
    32  C    8.590618   7.997016  11.824770   8.586375  10.991563
    33  N    8.005750   7.244121  11.096936   7.577798  10.043989
    34  H   11.828375  11.096185  14.948547  11.336593  13.832543
    35  H    8.604850   7.591424  11.342677   7.360355   9.872246
    36  H   11.004891  10.053963  13.837078   9.874009  12.385210
    37  H   10.537769  10.047079  13.838120  10.725048  13.110775
    38  H    8.027937   7.581926  11.343274   8.417677  10.726818
    39  H    4.816529   4.075482   7.562606   4.543459   6.670726
    40  H    3.803707   3.459384   6.634429   4.525326   6.244599
    41  H    6.112732   5.591084   9.157566   6.327891   8.483427
                   26         27         28         29         30
    26  H    0.000000
    27  H    2.514329   0.000000
    28  C   11.005588   8.609034   0.000000
    29  C   12.349593   9.925314   1.391916   0.000000
    30  C   12.772813  10.286513   2.397607   1.396311   0.000000
    31  C   11.923679   9.412454   2.746697   2.410417   1.396683
    32  C   10.542993   8.034400   2.325255   2.745891   2.397293
    33  N   10.058879   7.598786   1.342220   2.388033   2.767249
    34  H   13.843022  11.351122   3.387779   2.158323   1.085277
    35  H   10.741669   8.443824   1.086933   2.179038   3.404006
    36  H   13.122397  10.745824   2.147465   1.084473   2.171258
    37  H   12.395841   9.883578   3.830575   3.406034   2.171494
    38  H    9.885043   7.372014   3.280631   3.831089   3.403839
    39  H    6.754617   4.669304   5.096401   6.362333   6.989312
    40  H    5.517815   3.523740   6.435375   7.686329   8.148111
    41  H    7.968558   5.662808   4.298096   5.358823   5.681129
                   31         32         33         34         35
    31  C    0.000000
    32  C    1.391827   0.000000
    33  N    2.388370   1.342091   0.000000
    34  H    2.158746   3.387632   3.852525   0.000000
    35  H    3.831805   3.280727   2.061300   4.318040   0.000000
    36  H    3.406115   3.829667   3.359521   2.513378   2.515488
    37  H    1.084563   2.148121   3.360215   2.513658   4.914776
    38  H    2.178825   1.087003   2.060947   4.318119   4.120565
    39  H    6.521088   5.288124   4.479226   8.020388   4.788074
    40  H    7.476262   6.193720   5.613123   9.179348   6.241517
    41  H    5.054790   3.929279   3.486011   6.659920   4.390735
                   36         37         38         39         40
    36  H    0.000000
    37  H    4.325045   0.000000
    38  H    4.913955   2.516189   0.000000
    39  H    7.009329   7.266379   5.144765   0.000000
    40  H    8.421975   8.075540   5.793515   1.578422   0.000000
    41  H    6.151609   5.670874   3.730916   1.922066   2.667542
                   41
    41  H    0.000000
 Symmetry turned off by external request.
 Stoichiometry    C13H16N2O8Zn2
 Framework group  C1[X(C13H16N2O8Zn2)]
 Deg. of freedom   117
 Full point group                 C1      NOp   1
 Rotational constants (GHZ):           0.4926853           0.1019743           0.0967616
 General basis read from cards:  (5D, 7F)
 ======================================================================================================
                                       Pseudopotential Parameters
 ======================================================================================================
  Center     Atomic      Valence      Angular      Power
  Number     Number     Electrons     Momentum     of R      Exponent        Coefficient   SO-Coeffient
 ======================================================================================================
    1         30           12
                                      F and up 
                                                     1      386.7379660      -18.00000000    0.00000000
                                                     2       72.8587359     -124.35274030    0.00000000
                                                     2       15.9066170      -30.66018220    0.00000000
                                                     2        4.3502340      -10.63589890    0.00000000
                                                     2        1.2842199       -0.76836230    0.00000000
                                      S - F
                                                     0       19.0867858        3.00000000    0.00000000
                                                     1        5.0231080       22.52342250    0.00000000
                                                     2        1.2701744       48.44659420    0.00000000
                                                     2        1.0671287      -44.55601190    0.00000000
                                                     2        0.9264190       12.99839580    0.00000000
                                      P - F
                                                     0       43.4927750        5.00000000    0.00000000
                                                     1       20.8692669       20.74355890    0.00000000
                                                     2       21.7118378       90.30271580    0.00000000
                                                     2        6.3616915       74.66103160    0.00000000
                                                     2        1.2291195        9.88944240    0.00000000
                                      D - F
                                                     2       13.5851800       -4.84903590    0.00000000
                                                     2        9.8373050        3.69133790    0.00000000
                                                     2        0.8373113       -0.50373190    0.00000000
    2          8
                                   No pseudopotential on this center.
    3          8
                                   No pseudopotential on this center.
    4          8
                                   No pseudopotential on this center.
    5          8
                                   No pseudopotential on this center.
    6          6
                                   No pseudopotential on this center.
    7         30           12
                                      F and up 
                                                     1      386.7379660      -18.00000000    0.00000000
                                                     2       72.8587359     -124.35274030    0.00000000
                                                     2       15.9066170      -30.66018220    0.00000000
                                                     2        4.3502340      -10.63589890    0.00000000
                                                     2        1.2842199       -0.76836230    0.00000000
                                      S - F
                                                     0       19.0867858        3.00000000    0.00000000
                                                     1        5.0231080       22.52342250    0.00000000
                                                     2        1.2701744       48.44659420    0.00000000
                                                     2        1.0671287      -44.55601190    0.00000000
                                                     2        0.9264190       12.99839580    0.00000000
                                      P - F
                                                     0       43.4927750        5.00000000    0.00000000
                                                     1       20.8692669       20.74355890    0.00000000
                                                     2       21.7118378       90.30271580    0.00000000
                                                     2        6.3616915       74.66103160    0.00000000
                                                     2        1.2291195        9.88944240    0.00000000
                                      D - F
                                                     2       13.5851800       -4.84903590    0.00000000
                                                     2        9.8373050        3.69133790    0.00000000
                                                     2        0.8373113       -0.50373190    0.00000000
    8          8
                                   No pseudopotential on this center.
    9          8
                                   No pseudopotential on this center.
   10          8
                                   No pseudopotential on this center.
   11          8
                                   No pseudopotential on this center.
   12          6
                                   No pseudopotential on this center.
   13          6
                                   No pseudopotential on this center.
   14          1
                                   No pseudopotential on this center.
   15          1
                                   No pseudopotential on this center.
   16          1
                                   No pseudopotential on this center.
   17          6
                                   No pseudopotential on this center.
   18          6
                                   No pseudopotential on this center.
   19          6
                                   No pseudopotential on this center.
   20          6
                                   No pseudopotential on this center.
   21          6
                                   No pseudopotential on this center.
   22          7
                                   No pseudopotential on this center.
   23          1
                                   No pseudopotential on this center.
   24          1
                                   No pseudopotential on this center.
   25          1
                                   No pseudopotential on this center.
   26          1
                                   No pseudopotential on this center.
   27          1
                                   No pseudopotential on this center.
   28          6
                                   No pseudopotential on this center.
   29          6
                                   No pseudopotential on this center.
   30          6
                                   No pseudopotential on this center.
   31          6
                                   No pseudopotential on this center.
   32          6
                                   No pseudopotential on this center.
   33          7
                                   No pseudopotential on this center.
   34          1
                                   No pseudopotential on this center.
   35          1
                                   No pseudopotential on this center.
   36          1
                                   No pseudopotential on this center.
   37          1
                                   No pseudopotential on this center.
   38          1
                                   No pseudopotential on this center.
   39          1
                                   No pseudopotential on this center.
   40          1
                                   No pseudopotential on this center.
   41          1
                                   No pseudopotential on this center.
 ======================================================================================================
   530 basis functions,   926 primitive gaussians,   557 cartesian basis functions
    98 alpha electrons       98 beta electrons
       nuclear repulsion energy      2551.3315688826 Hartrees.
 NAtoms=   41 NActive=   41 NUniq=   41 SFac= 1.00D+00 NAtFMM=   60 NAOKFM=F Big=F
 Integral buffers will be    131072 words long.
 Raffenetti 2 integral format.
 Two-electron integral symmetry is turned off.
 One-electron integrals computed using PRISM.
   1 Symmetry operations used in ECPInt.
 ECPInt:  NShTT=   15400 NPrTT=   71352 LenC2=   12910 LenP2D=   36759.
 LDataN:  DoStor=T MaxTD1= 5 Len=  102
 NBasis=   530 RedAO= T EigKep=  7.03D-06  NBF=   530
 NBsUse=   530 1.00D-06 EigRej= -1.00D+00 NBFU=   530
 ExpMin= 3.51D-02 ExpMax= 5.48D+03 ExpMxC= 8.25D+02 IAcc=3 IRadAn=         5 AccDes= 0.00D+00
 Harris functional with IExCor=  402 and IRadAn=       5 diagonalized for initial guess.
 HarFok:  IExCor=  402 AccDes= 0.00D+00 IRadAn=         5 IDoV= 1 UseB2=F ITyADJ=14
 ICtDFT=  3500011 ScaDFX=  1.000000  1.000000  1.000000  1.000000
 FoFCou: FMM=F IPFlag=           0 FMFlag=      100000 FMFlg1=           0
         NFxFlg=           0 DoJE=T BraDBF=F KetDBF=T FulRan=T
         wScrn=  0.000000 ICntrl=       500 IOpCl=  0 I1Cent=   200000004 NGrid=           0
         NMat0=    1 NMatS0=      1 NMatT0=    0 NMatD0=    1 NMtDS0=    0 NMtDT0=    0
 Symmetry not used in FoFCou.
 Gradient too large for Newton-Raphson -- use scaled steepest descent instead.
 Gradient too large for Newton-Raphson -- use scaled steepest descent instead.
     Accept linear search using points  2 and  3.
 Gradient too large for Newton-Raphson -- use scaled steepest descent instead.
 Gradient too large for Newton-Raphson -- use scaled steepest descent instead.
     Accept linear search using points  1 and  2.
 Gradient too large for Newton-Raphson -- use scaled steepest descent instead.
 LinEq1:  Iter=  0 NonCon=     1 RMS=2.90D-05 Max=1.03D-03 NDo=     1
 AX will form     1 AO Fock derivatives at one time.
 LinEq1:  Iter=  1 NonCon=     1 RMS=2.95D-05 Max=1.27D-03 NDo=     1
 LinEq1:  Iter=  2 NonCon=     1 RMS=1.67D-05 Max=5.00D-04 NDo=     1
 LinEq1:  Iter=  3 NonCon=     1 RMS=1.08D-05 Max=3.15D-04 NDo=     1
 LinEq1:  Iter=  4 NonCon=     1 RMS=6.01D-06 Max=1.93D-04 NDo=     1
 LinEq1:  Iter=  5 NonCon=     1 RMS=4.09D-06 Max=1.59D-04 NDo=     1
 LinEq1:  Iter=  6 NonCon=     1 RMS=3.58D-06 Max=1.02D-04 NDo=     1
 LinEq1:  Iter=  7 NonCon=     1 RMS=1.52D-06 Max=5.68D-05 NDo=     1
 LinEq1:  Iter=  8 NonCon=     1 RMS=9.81D-07 Max=9.02D-05 NDo=     1
 LinEq1:  Iter=  9 NonCon=     1 RMS=5.45D-07 Max=2.22D-05 NDo=     1
 LinEq1:  Iter= 10 NonCon=     1 RMS=3.26D-07 Max=1.13D-05 NDo=     1
 LinEq1:  Iter= 11 NonCon=     1 RMS=2.33D-07 Max=1.03D-05 NDo=     1
 LinEq1:  Iter= 12 NonCon=     1 RMS=9.12D-08 Max=3.42D-06 NDo=     1
 LinEq1:  Iter= 13 NonCon=     1 RMS=5.85D-08 Max=2.20D-06 NDo=     1
 LinEq1:  Iter= 14 NonCon=     1 RMS=4.34D-08 Max=1.69D-06 NDo=     1
 LinEq1:  Iter= 15 NonCon=     1 RMS=2.39D-08 Max=1.05D-06 NDo=     1
 LinEq1:  Iter= 16 NonCon=     1 RMS=2.10D-08 Max=9.65D-07 NDo=     1
 LinEq1:  Iter= 17 NonCon=     1 RMS=1.08D-08 Max=4.81D-07 NDo=     1
 LinEq1:  Iter= 18 NonCon=     1 RMS=7.00D-09 Max=4.34D-07 NDo=     1
 LinEq1:  Iter= 19 NonCon=     0 RMS=4.00D-09 Max=2.17D-07 NDo=     1
 Linear equations converged to 2.910D-08 2.910D-07 after    19 iterations.
     Minimum is close to point  2 DX=  2.57D-04 DF= -1.36D-12 DXR=  2.57D-04 DFR=  6.58D-08 which will be used.
 LinEq1:  Iter=  0 NonCon=     1 RMS=3.49D-08 Max=1.77D-06 NDo=     1
 LinEq1:  Iter=  1 NonCon=     1 RMS=2.91D-08 Max=1.08D-06 NDo=     1
 LinEq1:  Iter=  2 NonCon=     1 RMS=8.12D-09 Max=2.74D-07 NDo=     1
 LinEq1:  Iter=  3 NonCon=     1 RMS=6.40D-09 Max=1.75D-07 NDo=     1
 LinEq1:  Iter=  4 NonCon=     1 RMS=5.14D-09 Max=1.81D-07 NDo=     1
 LinEq1:  Iter=  5 NonCon=     1 RMS=3.37D-09 Max=1.48D-07 NDo=     1
 LinEq1:  Iter=  6 NonCon=     1 RMS=1.71D-09 Max=8.35D-08 NDo=     1
 LinEq1:  Iter=  7 NonCon=     1 RMS=1.40D-09 Max=6.64D-08 NDo=     1
 LinEq1:  Iter=  8 NonCon=     1 RMS=9.70D-10 Max=2.84D-08 NDo=     1
 LinEq1:  Iter=  9 NonCon=     1 RMS=6.89D-10 Max=3.85D-08 NDo=     1
 LinEq1:  Iter= 10 NonCon=     1 RMS=4.83D-10 Max=1.94D-08 NDo=     1
 LinEq1:  Iter= 11 NonCon=     1 RMS=2.75D-10 Max=1.07D-08 NDo=     1
 LinEq1:  Iter= 12 NonCon=     1 RMS=1.70D-10 Max=5.20D-09 NDo=     1
 LinEq1:  Iter= 13 NonCon=     1 RMS=1.01D-10 Max=4.92D-09 NDo=     1
 LinEq1:  Iter= 14 NonCon=     1 RMS=8.79D-11 Max=2.95D-09 NDo=     1
 LinEq1:  Iter= 15 NonCon=     1 RMS=6.30D-11 Max=2.65D-09 NDo=     1
 LinEq1:  Iter= 16 NonCon=     1 RMS=3.52D-11 Max=2.24D-09 NDo=     1
 LinEq1:  Iter= 17 NonCon=     1 RMS=2.48D-11 Max=1.40D-09 NDo=     1
 LinEq1:  Iter= 18 NonCon=     1 RMS=1.85D-11 Max=7.92D-10 NDo=     1
 LinEq1:  Iter= 19 NonCon=     1 RMS=1.20D-11 Max=6.35D-10 NDo=     1
 LinEq1:  Iter= 20 NonCon=     1 RMS=1.01D-11 Max=4.86D-10 NDo=     1
 LinEq1:  Iter= 21 NonCon=     0 RMS=8.73D-12 Max=4.21D-10 NDo=     1
 Linear equations converged to 4.681D-11 4.681D-10 after    21 iterations.
 SCF Done:  E(RB3LYP) =  -1347.82424669     a.u. after    8 cycles
            Convg  =    0.7936D-09                    59 Fock formations.
              S**2 =  0.0000                  -V/T =  1.9371
 DoSCS=F DFT=T ScalE2(SS,OS)=  1.000000  1.000000
 Range of M.O.s used for correlation:     1   530
 NBasis=   530 NAE=    98 NBE=    98 NFC=     0 NFV=     0
 NROrb=    530 NOA=    98 NOB=    98 NVA=   432 NVB=   432

 **** Warning!!: The largest alpha MO coefficient is  0.85807672D+02

   1 Symmetry operations used in ECPInt.
 ECPInt:  NShTT=   15400 NPrTT=   71352 LenC2=   12910 LenP2D=   36759.
 LDataN:  DoStor=T MaxTD1= 6 Len=  172
 Number of processors reduced to  20 by ecpmxn.
 Symmetrizing basis deriv contribution to polar:
 IMax=3 JMax=2 DiffMx= 0.00D+00
 G2DrvN: will do    42 centers at a time, making    1 passes.
 Calling FoFCou, ICntrl=  3107 FMM=F I1Cent=   0 AccDes= 0.00D+00.
 End of G2Drv F.D. properties file   721 does not exist.
 End of G2Drv F.D. properties file   722 does not exist.
 End of G2Drv F.D. properties file   788 does not exist.
          IDoAtm=11111111111111111111111111111111111111111
          Differentiating once with respect to electric field.
                with respect to dipole field.
          Differentiating once with respect to nuclear coordinates.
 CalDSu exits because no D1Ps are significant.
          There are   126 degrees of freedom in the 1st order CPHF.  IDoFFX=6 NUNeed=     3.
    123 vectors produced by pass  0 Test12= 4.23D-14 1.00D-09 XBig12= 2.78D+02 5.24D+00.
 AX will form   123 AO Fock derivatives at one time.
    123 vectors produced by pass  1 Test12= 4.23D-14 1.00D-09 XBig12= 8.29D+01 9.57D-01.
    123 vectors produced by pass  2 Test12= 4.23D-14 1.00D-09 XBig12= 5.05D-01 5.61D-02.
    123 vectors produced by pass  3 Test12= 4.23D-14 1.00D-09 XBig12= 2.38D-03 5.77D-03.
    123 vectors produced by pass  4 Test12= 4.23D-14 1.00D-09 XBig12= 5.59D-06 1.96D-04.
    122 vectors produced by pass  5 Test12= 4.23D-14 1.00D-09 XBig12= 7.40D-09 5.49D-06.
     32 vectors produced by pass  6 Test12= 4.23D-14 1.00D-09 XBig12= 7.22D-12 1.74D-07.
      3 vectors produced by pass  7 Test12= 4.23D-14 1.00D-09 XBig12= 8.40D-15 5.08D-09.
 InvSVY:  IOpt=1 It=  1 EMax= 1.42D-14
 Solved reduced A of dimension   772 with   126 vectors.
 Isotropic polarizability for W=    0.000000      229.50 Bohr**3.
 End of Minotr F.D. properties file   721 does not exist.
 End of Minotr F.D. properties file   722 does not exist.
 End of Minotr F.D. properties file   788 does not exist.

 **********************************************************************

            Population analysis using the SCF Density.

 **********************************************************************

 Alpha  occ. eigenvalues --  -19.13285 -19.13266 -19.13132 -19.12708 -19.12391
 Alpha  occ. eigenvalues --  -19.12322 -19.12183 -19.07773 -14.38384 -14.37585
 Alpha  occ. eigenvalues --  -10.29734 -10.29039 -10.28705 -10.25477 -10.25378
 Alpha  occ. eigenvalues --  -10.24766 -10.24663 -10.23808 -10.23186 -10.22698
 Alpha  occ. eigenvalues --  -10.22641 -10.22067 -10.21996  -1.05820  -1.05273
 Alpha  occ. eigenvalues --   -1.04851  -0.98947  -0.98409  -0.97723  -0.97323
 Alpha  occ. eigenvalues --   -0.96770  -0.96386  -0.90326  -0.83656  -0.83005
 Alpha  occ. eigenvalues --   -0.79667  -0.78995  -0.66676  -0.66022  -0.65999
 Alpha  occ. eigenvalues --   -0.65353  -0.61387  -0.60518  -0.59314  -0.59209
 Alpha  occ. eigenvalues --   -0.59083  -0.58750  -0.58617  -0.58072  -0.57919
 Alpha  occ. eigenvalues --   -0.57491  -0.57218  -0.56999  -0.55886  -0.55111
 Alpha  occ. eigenvalues --   -0.54596  -0.51387  -0.50712  -0.49894  -0.49799
 Alpha  occ. eigenvalues --   -0.49200  -0.47832  -0.47411  -0.47012  -0.46464
 Alpha  occ. eigenvalues --   -0.45909  -0.45545  -0.44886  -0.43994  -0.43538
 Alpha  occ. eigenvalues --   -0.43167  -0.42716  -0.42513  -0.41959  -0.41108
 Alpha  occ. eigenvalues --   -0.40308  -0.39708  -0.39580  -0.38925  -0.38677
 Alpha  occ. eigenvalues --   -0.34534  -0.32978  -0.32326  -0.31831  -0.31676
 Alpha  occ. eigenvalues --   -0.30100  -0.29559  -0.29373  -0.28809  -0.28714
 Alpha  occ. eigenvalues --   -0.28668  -0.28091  -0.27632  -0.26699  -0.26576
 Alpha  occ. eigenvalues --   -0.26304  -0.25092  -0.24070
 Alpha virt. eigenvalues --   -0.06696  -0.06011  -0.04630  -0.03970  -0.00706
 Alpha virt. eigenvalues --   -0.00236   0.00603   0.01274   0.01519   0.01851
 Alpha virt. eigenvalues --    0.02155   0.02466   0.02726   0.03111   0.03543
 Alpha virt. eigenvalues --    0.03748   0.04155   0.04384   0.04802   0.04834
 Alpha virt. eigenvalues --    0.05323   0.05982   0.06009   0.06811   0.07006
 Alpha virt. eigenvalues --    0.07716   0.08048   0.08721   0.08912   0.09143
 Alpha virt. eigenvalues --    0.09286   0.09499   0.09855   0.10094   0.10246
 Alpha virt. eigenvalues --    0.10433   0.11183   0.11889   0.12046   0.12435
 Alpha virt. eigenvalues --    0.12786   0.13109   0.13357   0.13677   0.13736
 Alpha virt. eigenvalues --    0.14462   0.14597   0.15445   0.15574   0.15658
 Alpha virt. eigenvalues --    0.16372   0.16412   0.16531   0.17245   0.17536
 Alpha virt. eigenvalues --    0.17638   0.17823   0.18225   0.18320   0.18400
 Alpha virt. eigenvalues --    0.18648   0.19349   0.19418   0.20196   0.20400
 Alpha virt. eigenvalues --    0.20593   0.20803   0.21354   0.22036   0.22361
 Alpha virt. eigenvalues --    0.23106   0.23278   0.23525   0.24063   0.24316
 Alpha virt. eigenvalues --    0.24648   0.24817   0.25379   0.25589   0.25873
 Alpha virt. eigenvalues --    0.26013   0.26260   0.26652   0.26806   0.27252
 Alpha virt. eigenvalues --    0.27476   0.27664   0.28179   0.28347   0.28459
 Alpha virt. eigenvalues --    0.29375   0.29910   0.30275   0.30813   0.30964
 Alpha virt. eigenvalues --    0.31151   0.31400   0.31729   0.31969   0.32035
 Alpha virt. eigenvalues --    0.32242   0.33082   0.33289   0.33394   0.33640
 Alpha virt. eigenvalues --    0.34002   0.34305   0.35398   0.35700   0.35914
 Alpha virt. eigenvalues --    0.36544   0.37014   0.37342   0.37835   0.38141
 Alpha virt. eigenvalues --    0.38893   0.39066   0.39391   0.39800   0.40129
 Alpha virt. eigenvalues --    0.40549   0.40739   0.41523   0.42544   0.42994
 Alpha virt. eigenvalues --    0.44034   0.44509   0.44983   0.46070   0.46378
 Alpha virt. eigenvalues --    0.46730   0.46993   0.47661   0.49105   0.49346
 Alpha virt. eigenvalues --    0.49888   0.49944   0.51705   0.52817   0.53885
 Alpha virt. eigenvalues --    0.54864   0.55031   0.55847   0.56502   0.56991
 Alpha virt. eigenvalues --    0.59364   0.59658   0.61801   0.62674   0.65948
 Alpha virt. eigenvalues --    0.66905   0.67196   0.68017   0.68855   0.69678
 Alpha virt. eigenvalues --    0.69690   0.70938   0.71584   0.72024   0.72181
 Alpha virt. eigenvalues --    0.72652   0.73168   0.73600   0.73724   0.73932
 Alpha virt. eigenvalues --    0.74859   0.75641   0.78423   0.79765   0.80769
 Alpha virt. eigenvalues --    0.85391   0.86033   0.86713   0.87798   0.88261
 Alpha virt. eigenvalues --    0.88557   0.89164   0.89463   0.90328   0.90608
 Alpha virt. eigenvalues --    0.91018   0.91090   0.91751   0.93312   0.95425
 Alpha virt. eigenvalues --    0.96230   0.96585   0.98010   0.98241   1.00212
 Alpha virt. eigenvalues --    1.00714   1.01604   1.01702   1.03573   1.04220
 Alpha virt. eigenvalues --    1.04530   1.04971   1.06065   1.06539   1.06813
 Alpha virt. eigenvalues --    1.09131   1.10944   1.11197   1.13165   1.13599
 Alpha virt. eigenvalues --    1.14017   1.14704   1.15311   1.15775   1.16138
 Alpha virt. eigenvalues --    1.16624   1.17253   1.17890   1.18326   1.19139
 Alpha virt. eigenvalues --    1.19250   1.20324   1.21186   1.22109   1.22727
 Alpha virt. eigenvalues --    1.23962   1.24274   1.24987   1.26134   1.26798
 Alpha virt. eigenvalues --    1.27867   1.28861   1.29557   1.30892   1.31363
 Alpha virt. eigenvalues --    1.32315   1.33539   1.34464   1.35029   1.35822
 Alpha virt. eigenvalues --    1.36027   1.36295   1.36759   1.37671   1.38477
 Alpha virt. eigenvalues --    1.38771   1.39813   1.40425   1.40526   1.40969
 Alpha virt. eigenvalues --    1.41455   1.42308   1.43376   1.44172   1.44514
 Alpha virt. eigenvalues --    1.45177   1.46630   1.46803   1.47602   1.48398
 Alpha virt. eigenvalues --    1.48761   1.48974   1.50744   1.51449   1.52804
 Alpha virt. eigenvalues --    1.54844   1.55113   1.56844   1.58235   1.60246
 Alpha virt. eigenvalues --    1.61606   1.62455   1.62680   1.63266   1.64134
 Alpha virt. eigenvalues --    1.65714   1.66329   1.67219   1.68381   1.69279
 Alpha virt. eigenvalues --    1.70817   1.71957   1.75456   1.77048   1.77857
 Alpha virt. eigenvalues --    1.78851   1.79392   1.80092   1.80426   1.81154
 Alpha virt. eigenvalues --    1.82518   1.83295   1.83805   1.84665   1.85615
 Alpha virt. eigenvalues --    1.86928   1.87290   1.87551   1.89219   1.89324
 Alpha virt. eigenvalues --    1.90635   1.91246   1.91425   1.92391   1.93050
 Alpha virt. eigenvalues --    1.93534   1.94197   1.94864   1.95016   1.95595
 Alpha virt. eigenvalues --    1.96025   1.96924   1.97561   1.97805   1.98062
 Alpha virt. eigenvalues --    1.99063   1.99455   2.00448   2.00787   2.01544
 Alpha virt. eigenvalues --    2.01815   2.02475   2.03476   2.04337   2.06176
 Alpha virt. eigenvalues --    2.08450   2.09587   2.10383   2.12252   2.12475
 Alpha virt. eigenvalues --    2.13502   2.14038   2.14981   2.20093   2.21266
 Alpha virt. eigenvalues --    2.22811   2.24728   2.24917   2.26124   2.26844
 Alpha virt. eigenvalues --    2.27034   2.27597   2.27941   2.28607   2.28660
 Alpha virt. eigenvalues --    2.29397   2.29783   2.30592   2.31754   2.34261
 Alpha virt. eigenvalues --    2.35059   2.35560   2.35678   2.36262   2.37022
 Alpha virt. eigenvalues --    2.37642   2.38224   2.38922   2.41219   2.45138
 Alpha virt. eigenvalues --    2.45553   2.45813   2.47225   2.48241   2.48880
 Alpha virt. eigenvalues --    2.50520   2.50927   2.51288   2.52155   2.52718
 Alpha virt. eigenvalues --    2.53342   2.54695   2.56612   2.57225   2.57265
 Alpha virt. eigenvalues --    2.58312   2.58406   2.59151   2.60672   2.65353
 Alpha virt. eigenvalues --    2.66024   2.67856   2.68304   2.68608   2.69423
 Alpha virt. eigenvalues --    2.69763   2.70874   2.71095   2.71276   2.71916
 Alpha virt. eigenvalues --    2.72073   2.74761   2.76613   2.77343   2.77668
 Alpha virt. eigenvalues --    2.80245   2.80857   2.83587   2.84288   2.84779
 Alpha virt. eigenvalues --    2.88354   2.97258   2.97852   3.02338   3.02827
 Alpha virt. eigenvalues --    3.03466   3.03912   3.05799   3.06808   3.07720
 Alpha virt. eigenvalues --    3.08413   3.14238   3.15237   3.16473   3.18431
 Alpha virt. eigenvalues --    3.24181   3.24805   3.25280   3.25459   3.25948
 Alpha virt. eigenvalues --    3.26077   3.30530   3.31233   3.41364   3.42071
 Alpha virt. eigenvalues --    3.46662   3.47570   3.48598   3.51111   3.55369
 Alpha virt. eigenvalues --    3.56147   3.57856   3.83141   3.91312   3.92007
 Alpha virt. eigenvalues --   11.50337  11.67807
          Condensed to atoms (all electrons):
               1          2          3          4          5          6
     1  Zn  11.762470   0.040166  -0.083828   0.127559  -0.024028  -0.146914
     2  O    0.040166   8.724495  -0.068764  -0.031530  -0.010303   0.070818
     3  O   -0.083828  -0.068764   8.521624  -0.002011  -0.044726   0.060457
     4  O    0.127559  -0.031530  -0.002011   8.549950  -0.204866   0.232264
     5  O   -0.024028  -0.010303  -0.044726  -0.204866   8.580530   0.215213
     6  C   -0.146914   0.070818   0.060457   0.232264   0.215213   4.870844
     7  Zn  -0.092941  -0.042111  -0.026221  -0.028443   0.146312  -0.141209
     8  O    0.011663   0.000258   0.008382   0.009179  -0.048211   0.013819
     9  O    0.117457   0.007532  -0.000929  -0.062243  -0.000486   0.022004
    10  O   -0.018669   0.011752  -0.062616  -0.000741   0.005567   0.003402
    11  O    0.103775  -0.072415   0.007791   0.008242   0.000838  -0.001964
    12  C   -0.125909   0.009416   0.007162   0.023746   0.017579  -0.041992
    13  C   -0.113961  -0.002710   0.020275   0.005791   0.007719  -0.019105
    14  H    0.004975  -0.000952  -0.000808  -0.101078  -0.100346   0.462857
    15  H    0.008273  -0.000016  -0.000007  -0.001391  -0.001184   0.001281
    16  H    0.003556  -0.000962  -0.000964  -0.000007  -0.000006   0.000027
    17  C   -0.022886  -0.004162  -0.002764  -0.002243  -0.020985  -0.002605
    18  C    0.000821  -0.000902  -0.032730   0.000433  -0.000514  -0.008602
    19  C   -0.004302  -0.000116   0.000620   0.000080   0.002438   0.003846
    20  C    0.001806  -0.002890   0.016576   0.000053  -0.013911  -0.023772
    21  C   -0.017639  -0.007173   0.038627   0.000220   0.038302   0.008648
    22  N    0.022784   0.002027  -0.037107  -0.003793  -0.010608   0.008128
    23  H    0.000010  -0.000000   0.000001   0.000000   0.000002  -0.000002
    24  H    0.000429   0.000022   0.000843  -0.000000   0.000277   0.000491
    25  H    0.000004   0.000000   0.000004   0.000000   0.000005   0.000009
    26  H    0.000008   0.000000  -0.000003   0.000000   0.000168   0.000174
    27  H    0.000317  -0.000010   0.000425  -0.000091  -0.001696   0.000678
    28  C   -0.042168  -0.006547  -0.006338  -0.022159  -0.001598  -0.001225
    29  C   -0.016602  -0.038106  -0.001414   0.000935   0.000841  -0.009821
    30  C   -0.103632  -0.004504  -0.000167   0.000386   0.000045   0.003770
    31  C    0.025404   0.035916  -0.001724  -0.025437  -0.002489  -0.018908
    32  C   -0.158824   0.003651  -0.007547   0.048478  -0.001347   0.012797
    33  N   -0.061168  -0.013686   0.001092  -0.006478  -0.003331   0.012822
    34  H   -0.000106   0.000001  -0.000000   0.000003   0.000000  -0.000002
    35  H    0.000954   0.001177   0.000026   0.000276   0.000001   0.000504
    36  H    0.003382   0.000008   0.000000   0.000005   0.000000   0.000011
    37  H    0.003122   0.000001   0.000000   0.000191   0.000000   0.000207
    38  H   -0.002540   0.000328   0.000005  -0.003111  -0.000153   0.000572
    39  H    0.018340   0.067341   0.188201  -0.001176  -0.001575  -0.005087
    40  H    0.004484  -0.000549   0.261011  -0.000731   0.005963  -0.004670
    41  H    0.001700   0.254335   0.002566   0.002633  -0.000485  -0.007827
               7          8          9         10         11         12
     1  Zn  -0.092941   0.011663   0.117457  -0.018669   0.103775  -0.125909
     2  O   -0.042111   0.000258   0.007532   0.011752  -0.072415   0.009416
     3  O   -0.026221   0.008382  -0.000929  -0.062616   0.007791   0.007162
     4  O   -0.028443   0.009179  -0.062243  -0.000741   0.008242   0.023746
     5  O    0.146312  -0.048211  -0.000486   0.005567   0.000838   0.017579
     6  C   -0.141209   0.013819   0.022004   0.003402  -0.001964  -0.041992
     7  Zn  11.774473   0.109880   0.001014   0.126797  -0.000049  -0.118512
     8  O    0.109880   8.434217  -0.147694  -0.046777  -0.000046   0.216588
     9  O    0.001014  -0.147694   8.478372   0.008427  -0.064037   0.205256
    10  O    0.126797  -0.046777   0.008427   8.542346  -0.212533   0.021437
    11  O   -0.000049  -0.000046  -0.064037  -0.212533   8.504071   0.021197
    12  C   -0.118512   0.216588   0.205256   0.021437   0.021197   4.838012
    13  C   -0.136841   0.016909   0.025249   0.237715   0.252932  -0.034624
    14  H    0.002244  -0.001059  -0.001046  -0.000001   0.000018   0.001722
    15  H    0.009800  -0.099087  -0.094884  -0.001483  -0.001236   0.447573
    16  H    0.002507  -0.000939  -0.001376  -0.103029  -0.099136   0.001457
    17  C   -0.108531  -0.016115   0.007181   0.043411   0.000434   0.004700
    18  C    0.003200   0.000855   0.003574  -0.006838  -0.002656  -0.006959
    19  C   -0.117213  -0.003087   0.000121   0.001464   0.000141  -0.001336
    20  C   -0.020358   0.001965  -0.000565  -0.002028   0.001058  -0.012246
    21  C   -0.062563  -0.008236   0.001228  -0.029589   0.000877   0.006658
    22  N   -0.046140  -0.008396  -0.000203  -0.007528  -0.005085   0.009831
    23  H   -0.000175   0.000001   0.000000   0.000003   0.000000   0.000002
    24  H   -0.000473   0.000508  -0.000015  -0.001716  -0.000113  -0.000122
    25  H    0.003234  -0.000004  -0.000000   0.000198   0.000000  -0.000001
    26  H    0.003586  -0.000007  -0.000000   0.000006   0.000000  -0.000006
    27  H   -0.003924   0.000449  -0.000005   0.000275   0.000002   0.000209
    28  C   -0.017169   0.003800  -0.011582  -0.001533   0.043317   0.003660
    29  C    0.009589   0.000673  -0.004232  -0.002673  -0.004384  -0.010678
    30  C   -0.004088   0.000117  -0.003915   0.000138   0.001865  -0.002803
    31  C   -0.004901   0.002104   0.010171   0.001182   0.000660  -0.010936
    32  C   -0.026923   0.005489  -0.005765   0.000039  -0.024036  -0.001128
    33  N    0.021625  -0.003167  -0.010417  -0.003344  -0.009117   0.014481
    34  H    0.000011  -0.000000   0.000001   0.000000   0.000003   0.000003
    35  H    0.000340  -0.000009   0.000434  -0.000142  -0.002521   0.000074
    36  H    0.000006  -0.000000  -0.000007   0.000000   0.000201  -0.000010
    37  H    0.000001  -0.000000  -0.000008   0.000000   0.000005  -0.000009
    38  H    0.000214  -0.000017   0.000494   0.000003   0.000231  -0.000104
    39  H    0.003987  -0.000202  -0.000213   0.001102   0.003674  -0.001822
    40  H    0.008112  -0.000264   0.000165   0.003612  -0.000001   0.000287
    41  H    0.006936   0.000040   0.000018   0.000068   0.003989  -0.000299
              13         14         15         16         17         18
     1  Zn  -0.113961   0.004975   0.008273   0.003556  -0.022886   0.000821
     2  O   -0.002710  -0.000952  -0.000016  -0.000962  -0.004162  -0.000902
     3  O    0.020275  -0.000808  -0.000007  -0.000964  -0.002764  -0.032730
     4  O    0.005791  -0.101078  -0.001391  -0.000007  -0.002243   0.000433
     5  O    0.007719  -0.100346  -0.001184  -0.000006  -0.020985  -0.000514
     6  C   -0.019105   0.462857   0.001281   0.000027  -0.002605  -0.008602
     7  Zn  -0.136841   0.002244   0.009800   0.002507  -0.108531   0.003200
     8  O    0.016909  -0.001059  -0.099087  -0.000939  -0.016115   0.000855
     9  O    0.025249  -0.001046  -0.094884  -0.001376   0.007181   0.003574
    10  O    0.237715  -0.000001  -0.001483  -0.103029   0.043411  -0.006838
    11  O    0.252932   0.000018  -0.001236  -0.099136   0.000434  -0.002656
    12  C   -0.034624   0.001722   0.447573   0.001457   0.004700  -0.006959
    13  C    4.794052   0.000138   0.000759   0.466803   0.003886  -0.019718
    14  H    0.000138   0.649415  -0.000006   0.000000  -0.000867  -0.000106
    15  H    0.000759  -0.000006   0.643477  -0.000005  -0.000696  -0.000513
    16  H    0.466803   0.000000  -0.000005   0.644597   0.001559  -0.001309
    17  C    0.003886  -0.000867  -0.000696   0.001559  10.063577  -3.212910
    18  C   -0.019718  -0.000106  -0.000513  -0.001309  -3.212910   8.344967
    19  C    0.003955   0.000061   0.000038   0.000097  -0.223373   0.534078
    20  C   -0.007511  -0.001520  -0.000429  -0.000152   0.298196  -0.085055
    21  C   -0.002022   0.000081  -0.000024  -0.000888  -1.334403   0.278013
    22  N    0.012978  -0.000328  -0.000154  -0.000521   0.364115  -0.097343
    23  H   -0.000002   0.000000  -0.000000   0.000000   0.016808  -0.003804
    24  H    0.000700  -0.000000   0.000000  -0.000016   0.320090  -0.006376
    25  H    0.000186   0.000000   0.000000   0.000000   0.096962   0.212052
    26  H    0.000011   0.000000   0.000000   0.000000   0.008305  -0.006118
    27  H    0.000396  -0.000008   0.000000  -0.000000   0.033163  -0.029166
    28  C    0.007312  -0.000708  -0.000101   0.000398  -0.001230   0.000015
    29  C   -0.027761  -0.000061  -0.000402  -0.001424   0.000083   0.000027
    30  C    0.004308   0.000046   0.000047   0.000069  -0.000030   0.000003
    31  C   -0.009241  -0.002335  -0.000403  -0.000100   0.000226   0.000039
    32  C   -0.002608  -0.000395  -0.000247  -0.000804   0.000045   0.000169
    33  N    0.008854  -0.000310  -0.000373  -0.000375   0.000458   0.000157
    34  H   -0.000001   0.000000  -0.000000   0.000000   0.000000   0.000000
    35  H    0.000084  -0.000000   0.000000  -0.000023  -0.000012  -0.000001
    36  H    0.000194   0.000000   0.000000   0.000000   0.000000   0.000000
    37  H    0.000010   0.000000   0.000000   0.000000  -0.000000  -0.000000
    38  H    0.000492  -0.000015   0.000000  -0.000000   0.000004   0.000000
    39  H   -0.007443   0.000009   0.000000   0.000065   0.001862   0.001243
    40  H    0.000345   0.000043   0.000000   0.000003   0.000109   0.004715
    41  H    0.002175   0.000049   0.000000   0.000002   0.000379   0.000053
              19         20         21         22         23         24
     1  Zn  -0.004302   0.001806  -0.017639   0.022784   0.000010   0.000429
     2  O   -0.000116  -0.002890  -0.007173   0.002027  -0.000000   0.000022
     3  O    0.000620   0.016576   0.038627  -0.037107   0.000001   0.000843
     4  O    0.000080   0.000053   0.000220  -0.003793   0.000000  -0.000000
     5  O    0.002438  -0.013911   0.038302  -0.010608   0.000002   0.000277
     6  C    0.003846  -0.023772   0.008648   0.008128  -0.000002   0.000491
     7  Zn  -0.117213  -0.020358  -0.062563  -0.046140  -0.000175  -0.000473
     8  O   -0.003087   0.001965  -0.008236  -0.008396   0.000001   0.000508
     9  O    0.000121  -0.000565   0.001228  -0.000203   0.000000  -0.000015
    10  O    0.001464  -0.002028  -0.029589  -0.007528   0.000003  -0.001716
    11  O    0.000141   0.001058   0.000877  -0.005085   0.000000  -0.000113
    12  C   -0.001336  -0.012246   0.006658   0.009831   0.000002  -0.000122
    13  C    0.003955  -0.007511  -0.002022   0.012978  -0.000002   0.000700
    14  H    0.000061  -0.001520   0.000081  -0.000328   0.000000  -0.000000
    15  H    0.000038  -0.000429  -0.000024  -0.000154  -0.000000   0.000000
    16  H    0.000097  -0.000152  -0.000888  -0.000521   0.000000  -0.000016
    17  C   -0.223373   0.298196  -1.334403   0.364115   0.016808   0.320090
    18  C    0.534078  -0.085055   0.278013  -0.097343  -0.003804  -0.006376
    19  C    5.808674   0.602598  -0.270460  -0.129068   0.283250   0.031860
    20  C    0.602598   8.513472  -3.380634  -0.152402  -0.004054  -0.030466
    21  C   -0.270460  -3.380634  10.246256   0.361873   0.017162   0.035044
    22  N   -0.129068  -0.152402   0.361873   6.609688   0.003640  -0.046322
    23  H    0.283250  -0.004054   0.017162   0.003640   0.552827  -0.000146
    24  H    0.031860  -0.030466   0.035044  -0.046322  -0.000146   0.512422
    25  H    0.000233  -0.007404   0.006158   0.003650  -0.005384  -0.003385
    26  H    0.006846   0.213586   0.085145   0.003210  -0.005394   0.000016
    27  H    0.031982   0.000874   0.316707  -0.047887  -0.000148  -0.000155
    28  C   -0.000021   0.000191   0.000339   0.000311   0.000000  -0.000007
    29  C    0.000002   0.000043   0.000225   0.000102   0.000000  -0.000001
    30  C   -0.000000  -0.000005  -0.000052   0.000006   0.000000   0.000000
    31  C   -0.000005  -0.000039  -0.000536   0.000232   0.000000   0.000000
    32  C   -0.000061  -0.000258  -0.002361   0.001123   0.000000   0.000000
    33  N    0.000001   0.000064   0.000502  -0.001383   0.000000  -0.000001
    34  H    0.000000   0.000000   0.000000   0.000000   0.000000   0.000000
    35  H   -0.000000   0.000000   0.000002  -0.000001   0.000000  -0.000000
    36  H    0.000000  -0.000000  -0.000000  -0.000000   0.000000   0.000000
    37  H    0.000000  -0.000000   0.000000  -0.000000   0.000000   0.000000
    38  H   -0.000000  -0.000001  -0.000016  -0.000001   0.000000  -0.000000
    39  H    0.000005   0.000630  -0.000258   0.002080   0.000000  -0.000011
    40  H   -0.000828  -0.000887  -0.011834   0.002806  -0.000000  -0.000005
    41  H    0.000007  -0.000114  -0.000148   0.000158  -0.000000  -0.000000
              25         26         27         28         29         30
     1  Zn   0.000004   0.000008   0.000317  -0.042168  -0.016602  -0.103632
     2  O    0.000000   0.000000  -0.000010  -0.006547  -0.038106  -0.004504
     3  O    0.000004  -0.000003   0.000425  -0.006338  -0.001414  -0.000167
     4  O    0.000000   0.000000  -0.000091  -0.022159   0.000935   0.000386
     5  O    0.000005   0.000168  -0.001696  -0.001598   0.000841   0.000045
     6  C    0.000009   0.000174   0.000678  -0.001225  -0.009821   0.003770
     7  Zn   0.003234   0.003586  -0.003924  -0.017169   0.009589  -0.004088
     8  O   -0.000004  -0.000007   0.000449   0.003800   0.000673   0.000117
     9  O   -0.000000  -0.000000  -0.000005  -0.011582  -0.004232  -0.003915
    10  O    0.000198   0.000006   0.000275  -0.001533  -0.002673   0.000138
    11  O    0.000000   0.000000   0.000002   0.043317  -0.004384   0.001865
    12  C   -0.000001  -0.000006   0.000209   0.003660  -0.010678  -0.002803
    13  C    0.000186   0.000011   0.000396   0.007312  -0.027761   0.004308
    14  H    0.000000   0.000000  -0.000008  -0.000708  -0.000061   0.000046
    15  H    0.000000   0.000000   0.000000  -0.000101  -0.000402   0.000047
    16  H    0.000000   0.000000  -0.000000   0.000398  -0.001424   0.000069
    17  C    0.096962   0.008305   0.033163  -0.001230   0.000083  -0.000030
    18  C    0.212052  -0.006118  -0.029166   0.000015   0.000027   0.000003
    19  C    0.000233   0.006846   0.031982  -0.000021   0.000002  -0.000000
    20  C   -0.007404   0.213586   0.000874   0.000191   0.000043  -0.000005
    21  C    0.006158   0.085145   0.316707   0.000339   0.000225  -0.000052
    22  N    0.003650   0.003210  -0.047887   0.000311   0.000102   0.000006
    23  H   -0.005384  -0.005394  -0.000148   0.000000   0.000000   0.000000
    24  H   -0.003385   0.000016  -0.000155  -0.000007  -0.000001   0.000000
    25  H    0.547965  -0.000114   0.000017   0.000000  -0.000000   0.000000
    26  H   -0.000114   0.549564  -0.003374  -0.000000  -0.000000   0.000000
    27  H    0.000017  -0.003374   0.517715   0.000002   0.000000  -0.000000
    28  C    0.000000  -0.000000   0.000002  10.528552  -3.576090  -0.308607
    29  C   -0.000000  -0.000000   0.000000  -3.576090   8.731412   0.531087
    30  C    0.000000   0.000000  -0.000000  -0.308607   0.531087   5.856278
    31  C   -0.000000  -0.000000  -0.000001   0.291815  -0.042949   0.563648
    32  C   -0.000000  -0.000000  -0.000013  -1.432455   0.238130  -0.225204
    33  N   -0.000000  -0.000000  -0.000001   0.374961  -0.099909  -0.122682
    34  H    0.000000   0.000000   0.000000   0.020001  -0.006012   0.282608
    35  H    0.000000   0.000000  -0.000000   0.320351  -0.007518   0.030868
    36  H   -0.000000   0.000000   0.000000   0.095335   0.208788   0.003102
    37  H    0.000000  -0.000000   0.000000   0.007718  -0.008402   0.004437
    38  H    0.000000   0.000000  -0.000000   0.036226  -0.032268   0.033521
    39  H   -0.000000  -0.000000  -0.000001   0.002741   0.000831   0.000097
    40  H    0.000000   0.000000   0.000029   0.000186   0.000048   0.000004
    41  H    0.000000  -0.000000   0.000000   0.000690   0.006555  -0.000579
              31         32         33         34         35         36
     1  Zn   0.025404  -0.158824  -0.061168  -0.000106   0.000954   0.003382
     2  O    0.035916   0.003651  -0.013686   0.000001   0.001177   0.000008
     3  O   -0.001724  -0.007547   0.001092  -0.000000   0.000026   0.000000
     4  O   -0.025437   0.048478  -0.006478   0.000003   0.000276   0.000005
     5  O   -0.002489  -0.001347  -0.003331   0.000000   0.000001   0.000000
     6  C   -0.018908   0.012797   0.012822  -0.000002   0.000504   0.000011
     7  Zn  -0.004901  -0.026923   0.021625   0.000011   0.000340   0.000006
     8  O    0.002104   0.005489  -0.003167  -0.000000  -0.000009  -0.000000
     9  O    0.010171  -0.005765  -0.010417   0.000001   0.000434  -0.000007
    10  O    0.001182   0.000039  -0.003344   0.000000  -0.000142   0.000000
    11  O    0.000660  -0.024036  -0.009117   0.000003  -0.002521   0.000201
    12  C   -0.010936  -0.001128   0.014481   0.000003   0.000074  -0.000010
    13  C   -0.009241  -0.002608   0.008854  -0.000001   0.000084   0.000194
    14  H   -0.002335  -0.000395  -0.000310   0.000000  -0.000000   0.000000
    15  H   -0.000403  -0.000247  -0.000373  -0.000000   0.000000   0.000000
    16  H   -0.000100  -0.000804  -0.000375   0.000000  -0.000023   0.000000
    17  C    0.000226   0.000045   0.000458   0.000000  -0.000012   0.000000
    18  C    0.000039   0.000169   0.000157   0.000000  -0.000001   0.000000
    19  C   -0.000005  -0.000061   0.000001   0.000000  -0.000000   0.000000
    20  C   -0.000039  -0.000258   0.000064   0.000000   0.000000  -0.000000
    21  C   -0.000536  -0.002361   0.000502   0.000000   0.000002  -0.000000
    22  N    0.000232   0.001123  -0.001383   0.000000  -0.000001  -0.000000
    23  H    0.000000   0.000000   0.000000   0.000000   0.000000   0.000000
    24  H    0.000000   0.000000  -0.000001   0.000000  -0.000000   0.000000
    25  H   -0.000000  -0.000000  -0.000000   0.000000   0.000000  -0.000000
    26  H   -0.000000  -0.000000  -0.000000   0.000000   0.000000   0.000000
    27  H   -0.000001  -0.000013  -0.000001   0.000000  -0.000000   0.000000
    28  C    0.291815  -1.432455   0.374961   0.020001   0.320351   0.095335
    29  C   -0.042949   0.238130  -0.099909  -0.006012  -0.007518   0.208788
    30  C    0.563648  -0.225204  -0.122682   0.282608   0.030868   0.003102
    31  C    8.781732  -3.676223  -0.160147  -0.004424  -0.031671  -0.007022
    32  C   -3.676223  10.679359   0.376151   0.016576   0.036543   0.006878
    33  N   -0.160147   0.376151   6.601442   0.003563  -0.046092   0.003771
    34  H   -0.004424   0.016576   0.003563   0.555891  -0.000148  -0.005415
    35  H   -0.031671   0.036543  -0.046092  -0.000148   0.514824  -0.003433
    36  H   -0.007022   0.006878   0.003771  -0.005415  -0.003433   0.550952
    37  H    0.206056   0.098129   0.002817  -0.005413   0.000016  -0.000115
    38  H    0.004423   0.312053  -0.048313  -0.000150  -0.000157   0.000017
    39  H   -0.000183   0.001501   0.000861   0.000000  -0.000006  -0.000000
    40  H    0.000010   0.000291   0.000002   0.000000  -0.000000   0.000000
    41  H    0.002235  -0.013178  -0.000614  -0.000000  -0.000008   0.000000
              37         38         39         40         41
     1  Zn   0.003122  -0.002540   0.018340   0.004484   0.001700
     2  O    0.000001   0.000328   0.067341  -0.000549   0.254335
     3  O    0.000000   0.000005   0.188201   0.261011   0.002566
     4  O    0.000191  -0.003111  -0.001176  -0.000731   0.002633
     5  O    0.000000  -0.000153  -0.001575   0.005963  -0.000485
     6  C    0.000207   0.000572  -0.005087  -0.004670  -0.007827
     7  Zn   0.000001   0.000214   0.003987   0.008112   0.006936
     8  O   -0.000000  -0.000017  -0.000202  -0.000264   0.000040
     9  O   -0.000008   0.000494  -0.000213   0.000165   0.000018
    10  O    0.000000   0.000003   0.001102   0.003612   0.000068
    11  O    0.000005   0.000231   0.003674  -0.000001   0.003989
    12  C   -0.000009  -0.000104  -0.001822   0.000287  -0.000299
    13  C    0.000010   0.000492  -0.007443   0.000345   0.002175
    14  H    0.000000  -0.000015   0.000009   0.000043   0.000049
    15  H    0.000000   0.000000   0.000000   0.000000   0.000000
    16  H    0.000000  -0.000000   0.000065   0.000003   0.000002
    17  C   -0.000000   0.000004   0.001862   0.000109   0.000379
    18  C   -0.000000   0.000000   0.001243   0.004715   0.000053
    19  C    0.000000  -0.000000   0.000005  -0.000828   0.000007
    20  C   -0.000000  -0.000001   0.000630  -0.000887  -0.000114
    21  C    0.000000  -0.000016  -0.000258  -0.011834  -0.000148
    22  N   -0.000000  -0.000001   0.002080   0.002806   0.000158
    23  H    0.000000   0.000000   0.000000  -0.000000  -0.000000
    24  H    0.000000  -0.000000  -0.000011  -0.000005  -0.000000
    25  H    0.000000   0.000000  -0.000000   0.000000   0.000000
    26  H   -0.000000   0.000000  -0.000000   0.000000  -0.000000
    27  H    0.000000  -0.000000  -0.000001   0.000029   0.000000
    28  C    0.007718   0.036226   0.002741   0.000186   0.000690
    29  C   -0.008402  -0.032268   0.000831   0.000048   0.006555
    30  C    0.004437   0.033521   0.000097   0.000004  -0.000579
    31  C    0.206056   0.004423  -0.000183   0.000010   0.002235
    32  C    0.098129   0.312053   0.001501   0.000291  -0.013178
    33  N    0.002817  -0.048313   0.000861   0.000002  -0.000614
    34  H   -0.005413  -0.000150   0.000000   0.000000  -0.000000
    35  H    0.000016  -0.000157  -0.000006  -0.000000  -0.000008
    36  H   -0.000115   0.000017  -0.000000   0.000000   0.000000
    37  H    0.552618  -0.003395  -0.000000  -0.000000   0.000000
    38  H   -0.003395   0.520129  -0.000001   0.000000   0.000026
    39  H   -0.000000  -0.000001   0.250034  -0.015973  -0.010487
    40  H   -0.000000   0.000000  -0.015973   0.372159  -0.000727
    41  H    0.000000   0.000026  -0.010487  -0.000727   0.400792
 Mulliken charges:
               1
     1  Zn   0.772655
     2  O   -0.920837
     3  O   -0.755019
     4  O   -0.512894
     5  O   -0.528949
     6  C    0.428064
     7  Zn   0.764917
     8  O   -0.453579
     9  O   -0.479079
    10  O   -0.507704
    11  O   -0.455992
    12  C    0.518448
    13  C    0.509319
    14  H    0.090292
    15  H    0.091392
    16  H    0.090895
    17  C   -0.311742
    18  C    0.137205
    19  C   -0.562528
    20  C    0.095590
    21  C   -0.313232
    22  N    0.185530
    23  H    0.145403
    24  H    0.186627
    25  H    0.145616
    26  H    0.144391
    27  H    0.183239
    28  C   -0.308383
    29  C    0.161334
    30  C   -0.540181
    31  C    0.073820
    32  C   -0.258026
    33  N    0.167286
    34  H    0.143009
    35  H    0.185268
    36  H    0.143351
    37  H    0.142012
    38  H    0.181503
    39  H    0.499833
    40  H    0.372084
    41  H    0.349058
 Sum of Mulliken charges =   0.00000
 Mulliken charges with hydrogens summed into heavy atoms:
               1
     1  Zn   0.772655
     2  O   -0.571779
     3  O    0.116899
     4  O   -0.512894
     5  O   -0.528949
     6  C    0.518356
     7  Zn   0.764917
     8  O   -0.453579
     9  O   -0.479079
    10  O   -0.507704
    11  O   -0.455992
    12  C    0.609841
    13  C    0.600214
    17  C   -0.125115
    18  C    0.282822
    19  C   -0.417125
    20  C    0.239981
    21  C   -0.129992
    22  N    0.185530
    28  C   -0.123114
    29  C    0.304685
    30  C   -0.397172
    31  C    0.215832
    32  C   -0.076524
    33  N    0.167286
 APT charges:
               1
     1  Zn   1.607173
     2  O   -0.970775
     3  O   -0.899429
     4  O   -1.013647
     5  O   -1.041001
     6  C    1.230388
     7  Zn   1.627305
     8  O   -0.983895
     9  O   -0.975185
    10  O   -1.030196
    11  O   -1.003555
    12  C    1.167783
    13  C    1.235717
    14  H   -0.059144
    15  H   -0.055906
    16  H   -0.056537
    17  C    0.172899
    18  C   -0.118596
    19  C    0.113005
    20  C   -0.120529
    21  C    0.170070
    22  N   -0.501493
    23  H    0.044417
    24  H    0.106996
    25  H    0.050455
    26  H    0.049279
    27  H    0.100651
    28  C    0.173674
    29  C   -0.117452
    30  C    0.109969
    31  C   -0.120026
    32  C    0.169583
    33  N   -0.499644
    34  H    0.041839
    35  H    0.107705
    36  H    0.047941
    37  H    0.046553
    38  H    0.101316
    39  H    0.642267
    40  H    0.257300
    41  H    0.192726
 Sum of APT charges =   0.00000
 APT charges with hydrogens summed into heavy atoms:
               1
     1  Zn   1.607173
     2  O   -0.778050
     3  O    0.000138
     4  O   -1.013647
     5  O   -1.041001
     6  C    1.171243
     7  Zn   1.627305
     8  O   -0.983895
     9  O   -0.975185
    10  O   -1.030196
    11  O   -1.003555
    12  C    1.111878
    13  C    1.179180
    17  C    0.279895
    18  C   -0.068141
    19  C    0.157422
    20  C   -0.071249
    21  C    0.270721
    22  N   -0.501493
    28  C    0.281379
    29  C   -0.069511
    30  C    0.151808
    31  C   -0.073474
    32  C    0.270898
    33  N   -0.499644
 Electronic spatial extent (au):  <R**2>=          10713.8303
 Charge=              0.0000 electrons
 Dipole moment (field-independent basis, Debye):
    X=              1.1510    Y=              1.3847    Z=             -1.0468  Tot=              2.0828
 Quadrupole moment (field-independent basis, Debye-Ang):
   XX=            -78.2847   YY=           -146.8674   ZZ=           -164.2416
   XY=              1.8947   XZ=              4.0588   YZ=             -9.6904
 Traceless Quadrupole moment (field-independent basis, Debye-Ang):
   XX=             51.5132   YY=            -17.0695   ZZ=            -34.4437
   XY=              1.8947   XZ=              4.0588   YZ=             -9.6904
 Octapole moment (field-independent basis, Debye-Ang**2):
  XXX=            -12.9233  YYY=             36.3516  ZZZ=              5.5692  XYY=             -7.8978
  XXY=             10.8880  XXZ=             13.9142  XZZ=            -20.9499  YZZ=             -2.4045
  YYZ=             15.5977  XYZ=              1.8904
 Hexadecapole moment (field-independent basis, Debye-Ang**3):
 XXXX=          -8111.5583 YYYY=          -1420.1709 ZZZZ=          -1378.3820 XXXY=             -3.9888
 XXXZ=            -18.2739 YYYX=            -54.6778 YYYZ=            156.8472 ZZZX=           -110.8979
 ZZZY=            134.5556 XXYY=          -2111.9699 XXZZ=          -2229.5691 YYZZ=           -426.6709
 XXYZ=           -190.0166 YYXZ=            -38.3388 ZZXY=            -26.2403
 N-N= 2.551331568883D+03 E-N=-8.422226628321D+03  KE= 1.438225914615D+03
  Exact polarizability: 305.073   3.034 200.201   2.876 -35.597 183.227
 Approx polarizability: 412.511   5.184 306.916   2.421 -71.051 273.106
   1 Symmetry operations used in ECPInt.
 ECPInt:  NShTT=   15400 NPrTT=   71352 LenC2=   12910 LenP2D=   36759.
 LDataN:  DoStor=T MaxTD1= 7 Len=  274
 Calling FoFJK, ICntrl=    100127 FMM=F ISym2X=0 I1Cent= 0 IOpClX= 0 NMat=1 NMatS=1 NMatT=0.
 -------------------------------------------------------------------
 Center     Atomic                   Forces (Hartrees/Bohr)
 Number     Number              X              Y              Z
 -------------------------------------------------------------------
      1       30          -0.000950747   -0.000227418    0.001433391
      2        8           0.000749570   -0.001954680   -0.000130948
      3        8           0.001756768   -0.000597291    0.007154272
      4        8           0.001358648    0.001184639    0.000217212
      5        8          -0.000655202    0.000494050   -0.000135603
      6        6          -0.000015290   -0.000983638    0.001070486
      7       30           0.000085118   -0.000435479   -0.000010321
      8        8           0.000125063   -0.000735216   -0.000844092
      9        8           0.001152415    0.000498125   -0.000159245
     10        8          -0.001012844    0.000747252    0.000986259
     11        8           0.000681289   -0.001818360    0.000024957
     12        6          -0.001236075    0.000561990    0.000694882
     13        6           0.000078490    0.001277645   -0.000809118
     14        1          -0.000136098    0.000600353   -0.000552900
     15        1          -0.000536143   -0.000256610   -0.000368308
     16        1           0.000792728   -0.000455362    0.000272678
[...]
 0.10614834,0.21121344,0.00022742,0.00011005,0.00007959,-0.00001921,-0.
 00003207,-0.00004957,-0.00001129,-0.00001388,-0.00001401,-0.00002779,-
 0.00004997,0.00001703,-0.00000579,-0.00001963,-0.00000807,0.00001229,0
 .00002703,0.00000694,0.00002891,0.00003734,0.00002705,-0.00005762,-0.0
 0001679,-0.00002447,-0.00007072,-0.00000524,0.00001862,-0.00005014,-0.
 00002829,-0.00000447,-0.00009519,0.00002293,-0.00004859,0.00008562,0.0
 0000347,0.00000659,0.00009167,0.00000762,0.00000951,-0.00000559,-0.000
 00662,0.00000611,0.00000010,0.,-0.00000224,-0.00000730,0.00000776,0.00
 000233,-0.00000065,0.00000162,0.00000475,0.00000031,-0.00000060,-0.000
 00101,0.00000026,0.00000049,0.00000203,-0.00000383,-0.00000035,-0.0000
 0297,0.00000557,-0.00000040,0.00000039,-0.00000902,-0.00000386,-0.0000
 0399,-0.00000061,0.00000026,0.,0.00000094,0.00000083,0.00000028,-0.000
 00078,0.00000036,-0.00000059,0.00000042,0.00000029,0.00000016,0.000004
 22,0.00000061,-0.00000013,0.00041078,-0.00042555,-0.00029599,0.0007919
 5,0.00411766,0.00561899,-0.00616441,0.00647307,-0.00183057,-0.07102712
 ,0.11023271,-0.10974042,-0.00010394,0.00214081,-0.00032680,-0.00169659
 ,0.00257113,0.00667328,0.00067253,-0.00200399,-0.00274615,0.00018094,-
 0.00064362,-0.00119762,-0.00039898,0.00032128,0.00001078,0.07685790,-0
 .12122262,0.10619073,0.00016311,0.00220001,-0.00118687,-0.00009625,-0.
 00018840,0.00049578,0.00008045,-0.00006415,0.00025686,0.00109764,0.001
 14952,-0.00044426,0.00219772,-0.00063395,0.00030827,-0.00342143,-0.001
 22926,0.00075524,-0.00035310,0.00071183,-0.00033831,0.00006450,-0.0002
 0308,-0.00006024,0.00006629,-0.00042050,-0.00011792,-0.00024785,-0.000
 26886,0.00011572,-0.00036608,-0.00006970,-0.00000704,-0.00011474,0.000
 13346,0.00016763,0.00040046,0.00013151,-0.00003233,0.00013267,0.000192
 67,-0.00011302,0.00001552,0.00001598,-0.00007033,-0.00000869,-0.000025
 31,0.00001456,-0.00001666,-0.00000901,-0.00004328,0.00001568,0.0000009
 4,-0.00000557,-0.00000106,-0.00000104,-0.00000137,0.00001766,0.0000044
 6,0.00000952,-0.00002908,0.00001346,0.00003307,0.00008867,-0.00006005,
 0.00002416,0.00000606,-0.00000017,0.00000015,-0.00001982,0.00000805,-0
 .00000445,0.00000491,0.00000212,0.00000292,0.00000368,0.00000076,-0.00
 000346,-0.00002273,0.00000931,0.00000306,-0.00041048,0.00324290,-0.003
 43639,-0.00054881,0.00089057,-0.00049995,-0.00503122,-0.00011170,-0.00
 210381,-0.00830501,-0.02195678,0.00960660,-0.14647575,-0.12730256,0.05
 259518,0.01265269,0.01967857,-0.00833058,-0.00046992,-0.00108966,0.000
 60609,0.00054566,0.00061873,-0.00033746,0.00009837,0.00006748,0.000254
 48,0.00060139,0.00054186,0.00038214,0.14766130,0.00031608,-0.00078628,
 0.00058938,-0.00001228,-0.00001182,0.00001543,0.00000586,-0.00000748,-
 0.00001158,-0.00114114,-0.00087890,-0.00029143,0.00004731,-0.00002379,
 0.00006831,-0.00021330,-0.00009859,-0.00007946,-0.00000247,0.00005478,
 0.00009046,-0.00017962,-0.00006444,-0.00007355,-0.00016000,0.00007545,
 -0.00009400,0.00007551,0.00004012,-0.00003993,0.00016472,-0.00003117,0
 .00001621,0.00027940,0.00000613,-0.00006519,-0.00013693,-0.00001826,0.
 00001307,-0.00007064,-0.00003769,0.00005306,0.00001112,-0.00000805,-0.
 00000742,0.00000990,-0.00000198,0.00000439,-0.00000539,0.00000187,0.00
 000257,0.00000174,-0.00000162,-0.00000348,-0.00000061,0.00000101,0.000
 00305,-0.00000364,-0.00000163,-0.00000527,0.00000678,0.00000294,0.0000
 0785,-0.00000345,-0.00000739,-0.00000997,-0.00000026,0.00000025,-0.000
 00038,-0.00000199,0.00000052,-0.00000075,-0.00000072,0.00000044,-0.000
 00052,0.00000096,0.00000037,-0.00000010,0.00000791,0.00000030,-0.00000
 013,0.00277996,0.00180480,0.00475542,-0.00019676,0.00009018,-0.0003638
 5,0.00026893,0.00223214,0.00294423,0.00164449,0.00566358,0.00084758,-0
 .11956785,-0.22195012,0.07813828,-0.00760928,-0.02273653,0.01003053,0.
 00031454,0.00007332,-0.00027062,-0.00057120,-0.00041449,0.00042215,-0.
 00003741,-0.00034608,-0.00070301,-0.00002929,-0.00048072,-0.00162214,0
 .12400162,0.23782815,-0.00019087,0.00088505,-0.00038242,0.00006361,-0.
 00017388,0.00001553,0.00009884,-0.00002564,0.00000040,0.00098588,0.000
 14544,-0.00099591,0.00042849,-0.00004682,0.00012220,-0.00044318,-0.000
 30175,0.00003520,-0.00005550,0.00016460,0.00006910,-0.00009166,-0.0000
 6927,-0.00007760,-0.00007029,-0.00000496,-0.00011663,-0.00005237,-0.00
 006297,-0.00000920,-0.00009187,-0.00002995,-0.00000791,0.00013591,0.00
 003384,0.00003165,0.00008411,0.00003020,0.00002051,0.00006764,0.000084
 84,-0.00000780,0.00001227,-0.00001132,-0.00002299,-0.00000065,-0.00000
 177,0.00000308,-0.00000953,0.00000228,-0.00000056,0.00000591,-0.000002
 38,-0.00000620,0.00000036,0.00000113,0.00000465,-0.00000247,0.00000048
 ,-0.00000517,0.00000542,0.00000386,0.00001294,0.00001149,-0.00001702,-
 0.00001025,0.00000067,-0.00000007,-0.00000023,-0.00000655,0.00000293,-
 0.00000135,-0.00000050,0.00000052,-0.00000001,0.00000201,-0.00000021,-
 0.00000061,0.00000323,-0.00000055,0.00000117,-0.00317196,0.00481718,0.
 00623542,0.00003729,-0.00015207,-0.00042532,-0.00238057,0.00278509,0.0
 0543189,-0.00350480,-0.00335544,0.00786010,0.04841430,0.07713803,-0.07
 802821,0.00688378,0.01460615,-0.00914064,-0.00017220,-0.00052778,-0.00
 025595,0.00033153,0.00062360,0.00024368,0.00031437,-0.00067342,-0.0011
 6285,0.00070862,-0.00149957,-0.00239691,-0.04810040,-0.09436596,0.0731
 1627,-0.00067456,-0.01041116,-0.02056265,0.02734213,0.00962101,0.01556
 120,-0.11379538,-0.01511987,0.00500265,-0.00884211,-0.00580145,0.00748
 276,-0.01222678,0.00435110,-0.00608948,0.01699149,0.00118667,-0.001301
 28,0.00747021,0.01194229,0.01944792,-0.00410227,-0.00105958,-0.0017522
 6,-0.00383231,0.00114396,0.00279199,-0.00994123,-0.00653301,0.00089617
 ,-0.00809109,0.00673364,-0.00026852,0.00612169,0.00003418,-0.00040342,
 0.01421659,-0.00050286,0.00014546,-0.00096865,-0.00017212,-0.00004885,
 -0.00038865,0.00003625,0.00007698,-0.00075914,-0.00008376,-0.00016041,
 -0.00103716,0.00003358,0.00117163,0.00065453,-0.00038447,-0.00147980,0
 .00020305,0.00012704,0.00046159,0.00006574,-0.00006883,-0.00074563,0.0
 0086793,0.00024823,0.00129097,0.00206314,-0.00189772,-0.00229245,0.000
 15575,-0.00004304,-0.00011888,-0.00263419,0.00092097,-0.00069124,-0.00
 002772,0.00002270,0.00005730,0.00019193,-0.00002269,-0.00009163,0.0002
 9254,-0.00005224,-0.00012297,-0.00037601,-0.00119610,0.00046406,0.0002
 6049,-0.00005432,-0.00013032,-0.00000420,0.00001039,-0.00000069,0.0002
 6359,-0.00013130,-0.00009937,-0.00032352,0.00111994,-0.00077802,0.0020
 1917,0.00133326,0.00257791,0.00007185,0.00001108,0.00002264,-0.0000401
 1,-0.00016029,-0.00009427,0.00012140,0.00003881,-0.00003624,0.00013423
 ,-0.00005008,0.00001410,-0.00000535,-0.00000423,-0.00012411,0.08275198
 ,-0.00224586,0.00070380,-0.00217209,-0.00659172,-0.03498886,-0.0053220
 8,0.01973672,-0.05825778,-0.00380509,-0.00123023,-0.00088989,0.0006277
 0,-0.00134321,0.00003647,-0.00129357,0.00233518,-0.00000894,0.00063388
 ,0.00538064,0.00348244,-0.00275079,-0.00052562,-0.00038604,0.00008558,
 -0.00031834,-0.00014924,0.00058751,-0.00015190,0.00178366,0.00141723,0
 .00136425,-0.00023680,0.00056661,0.00067678,0.00008533,-0.00024340,-0.
 00229054,-0.00246032,-0.00025983,-0.00009517,-0.00001440,0.00007596,-0
 .00004457,0.00007207,0.00000576,0.00010107,0.00001654,-0.00020879,0.00
 008628,0.00004140,0.00012948,0.00014038,-0.00011472,-0.00034727,0.0000
 7752,0.00002256,0.00008259,0.00002514,-0.00002585,-0.00016384,0.000234
 85,0.00005717,0.00022319,0.00056489,-0.00058803,-0.00051575,0.00003147
 ,-0.00000886,-0.00003258,-0.00068119,0.00021653,-0.00028192,0.00000677
 ,0.00000982,0.00001386,0.00004060,0.00000388,-0.00001711,0.00006336,-0
 .00000374,-0.00003710,-0.00011111,0.00002603,-0.00001827,0.00006610,-0
 .00007334,0.00003251,-0.00000013,0.00004176,-0.00001653,-0.00002323,-0
 .00004691,0.00001479,0.00000621,0.00010925,-0.00007314,0.00010555,-0.0
 0004669,0.00007871,0.00000935,-0.00000390,0.00000393,-0.00010862,-0.00
 001105,-0.00000632,-0.00000425,0.00000090,-0.00000447,0.00001484,-0.00
 000408,0.00000650,0.00004152,0.00000032,-0.00000627,0.00260661,0.09562
 682,-0.00472971,-0.00096901,-0.00014306,-0.00304864,-0.00506046,-0.024
 51097,0.01284121,0.00206799,-0.03388762,0.00178032,0.00070579,-0.00050
 553,0.00067176,-0.00111900,0.00198767,-0.00310946,0.00118646,-0.001335
 04,0.00864471,-0.00446815,-0.00690226,-0.00005877,0.00030539,0.0003088
 2,0.00017489,0.00030555,0.00024367,0.00046621,0.00200363,-0.00054558,0
 .00089560,-0.00016316,-0.00004714,-0.00007689,-0.00020855,-0.00026451,
 -0.00149783,-0.00061290,0.00046137,0.00020801,-0.00019622,0.00000711,0
 .00000339,0.00001075,0.00008147,0.00017158,0.00020564,-0.00015067,-0.0
 0031674,0.00010342,-0.00027796,-0.00009548,0.00005065,0.00014189,-0.00
 003777,-0.00001766,-0.00004706,0.00003996,0.00000424,-0.00004611,0.000
 13201,-0.00003066,0.00012662,0.00038889,-0.00041151,-0.00034230,-0.000
 01570,0.00000351,0.00001246,0.00023412,-0.00017186,0.00000286,-0.00000
 806,-0.00000983,-0.00000209,0.00001539,0.00001005,-0.00000034,0.000042
 17,-0.00002612,-0.00000901,-0.00000505,0.00004821,-0.00001014,-0.00001
 567,0.00000253,0.00001644,0.00000140,-0.00001849,0.00001050,0.00002753
 ,0.00006545,-0.00001144,-0.00005238,-0.00009908,0.00006984,-0.00009481
 ,-0.00014256,-0.00032191,0.00000638,0.00000196,-0.00000052,-0.00002330
 ,-0.00000867,0.00000780,-0.00000248,0.00000621,0.00000496,-0.00001101,
 0.,0.00000276,-0.00007919,0.00000638,-0.00001428,-0.02138026,0.0052398
 0,0.06559290,-0.00033042,-0.00081096,-0.00049224,-0.00296573,0.0047380
 6,-0.00034096,-0.04546162,-0.04820368,0.01383928,0.00038645,0.00024323
 ,0.00026411,-0.00019098,0.00029252,0.00147689,-0.00114833,0.00031492,-
 0.00102191,0.00248222,0.00047833,-0.00065268,-0.00053155,0.00010674,-0
 .00005228,-0.00036003,0.00023373,0.00031555,0.00029596,0.00033544,0.00
 003708,-0.00003180,0.00029313,-0.00003867,0.00056035,-0.00011786,-0.00
 016333,0.00009273,-0.00003423,0.00019264,0.00004019,-0.00009605,-0.000
 09094,-0.00002071,0.00000210,0.00004225,-0.00000508,0.00004106,-0.0000
 3766,-0.00069843,0.00000309,0.00080528,0.00011968,-0.00015255,-0.00034
 677,-0.00001670,0.00010755,0.00014901,-0.00010830,0.00001774,-0.000143
 95,0.00008991,-0.00000845,0.00004077,-0.00052860,-0.00030967,0.0000934
 1,0.00002420,-0.00000237,-0.00002357,0.00003109,0.00103624,-0.00037574
 ,-0.00005000,0.00001350,-0.00000763,0.00000266,0.00000292,-0.00001639,
 0.00009908,-0.00002145,-0.00001410,-0.00000841,-0.00006294,0.00002402,
 0.00001599,0.00000772,0.00000044,-0.00000183,-0.00001067,0.00000436,0.
 00003373,0.00003067,-0.00001312,-0.00004939,0.00001231,-0.00001486,0.0
 0012999,0.00007714,0.00005809,0.00000943,0.00000193,-0.00000034,-0.000
 01578,-0.00000877,-0.00000556,0.00000793,0.00000464,-0.00000366,0.0000
 0266,-0.00000568,-0.00000047,-0.00005523,-0.00000470,-0.00002088,0.003
 17196,-0.03584631,0.00488832,0.04764276,-0.00028049,-0.00048093,-0.000
 15695,0.00259897,0.00122780,-0.00001038,-0.08047810,-0.49688588,0.0675
 3858,0.00062601,0.00004185,-0.00000066,0.00143942,-0.00116032,0.001984
 20,-0.00121671,0.00057034,0.00014488,-0.00081075,-0.00507928,-0.000471
 72,0.00018014,0.00016191,0.00016293,0.00012712,0.00007022,-0.00003579,
 -0.00075712,-0.00063519,-0.00050417,-0.00045471,0.00029599,-0.00015887
 ,-0.00022620,-0.00007159,-0.00005203,0.00098738,-0.00004022,-0.0000820
 7,0.00015401,-0.00026124,-0.00000259,0.00001630,-0.00000047,0.00003493
 ,-0.00006082,0.00002287,0.00008434,0.00025488,-0.00011502,-0.00014855,
 -0.00006465,0.00008596,0.00014631,-0.00004284,-0.00004019,-0.00000422,
 -0.00007126,-0.00001241,0.00007287,-0.00002558,0.00000072,-0.00021277,
 -0.00020591,0.00039685,0.00021567,-0.00002192,0.00001416,0.00001353,0.
 00038690,-0.00040045,0.00011649,-0.00001054,0.00002140,-0.00001777,-0.
 00002511,0.00000202,0.00001122,-0.00000476,0.00002315,0.00001066,-0.00
 000193,-0.00004743,0.00002160,0.00001026,0.00000820,-0.00000134,0.0000
 0300,-0.00000262,-0.00000103,0.00001100,0.00000701,-0.00000907,-0.0000
 2090,0.00002361,-0.00001822,0.00008906,0.00004353,0.00003299,0.0000032
 6,0.00000243,0.00000102,0.00000440,-0.00000132,0.00000026,0.00000473,0
 .00000271,0.00000037,0.00000458,-0.00000056,0.00000375,-0.00003016,0.0
 0000604,0.00000044,0.00037866,-0.00587250,0.00094396,0.07774837,0.5079
 8406,-0.00023278,-0.00129271,0.00112828,-0.00001445,-0.00020272,-0.001
 30859,0.01942780,0.07397788,-0.02584313,0.00303100,0.00107559,-0.00080
 663,0.00365421,-0.00013424,0.00313489,-0.00566500,0.00128757,-0.000724
 48,-0.00085834,-0.00979959,-0.00003647,-0.00002511,0.00045379,0.000037
 67,0.00001113,0.00041218,-0.00002769,-0.00115077,-0.00190987,-0.000221
 18,-0.00061094,0.00021533,-0.00034390,-0.00004704,-0.00022953,-0.00012
 694,0.00121897,-0.00019409,0.00002439,0.00011725,-0.00023729,-0.000054
 91,0.00000942,-0.00004518,0.00007134,-0.00015268,-0.00002780,0.0001651
 7,-0.00004137,-0.00007509,0.00060785,0.00009199,-0.00012269,-0.0000953
 5,0.00000430,0.00005843,0.00011629,-0.00015517,-0.00010029,-0.00007069
 ,0.00023736,-0.00001208,-0.00028558,0.00011814,0.00060685,-0.00045217,
 -0.00000195,0.00000765,-0.00000821,-0.00011208,0.00024741,0.00017993,-
 0.00006062,0.00002328,-0.00000867,-0.00000897,-0.00002561,0.00000297,0
 .00003907,0.00000579,-0.00002332,0.00005088,-0.00006938,0.00004664,-0.
 00000449,0.00004199,-0.00002241,0.00000737,-0.00003185,0.00001522,0.00
 004938,0.00007734,-0.00003665,-0.00010292,-0.00007324,0.00003671,0.000
 09971,0.00011279,-0.00011054,0.00000849,0.00000767,0.00000011,0.000022
 97,0.00000832,0.00000467,0.00001077,0.00000864,0.00000222,-0.00000676,
 -0.00000145,0.00000523,-0.00013526,0.00000093,-0.00001221,-0.00076652,
 0.00564539,0.00018681,-0.01849264,-0.06972625,0.02401224,0.00226039,-0
 .00272347,-0.00244552,-0.11293896,0.18905511,0.03055194,-0.00470990,-0
 .00531514,-0.00060938,-0.00111160,-0.00023518,-0.00043319,-0.00053318,
 -0.00005617,-0.00069735,0.00099021,-0.00016765,0.00096281,0.00021773,0
 .00053231,-0.00014710,-0.00008826,-0.00010187,-0.00008058,-0.00010059,
 -0.00010542,-0.00005053,0.00019451,0.00042298,0.00006371,0.00040974,-0
 .00187250,-0.00026480,0.00007226,0.00007163,0.00005068,-0.00115446,-0.
 00024710,-0.00013991,-0.00001327,0.00001278,0.00006352,0.00000508,-0.0
 0000113,-0.00002846,0.00009920,-0.00001781,0.00011533,-0.00004456,0.00
 000987,-0.00002458,0.00002415,-0.00000080,-0.00001184,-0.00000524,-0.0
 0000440,0.00001276,0.00000316,0.00000488,-0.00001134,0.00000602,-0.000
 00265,0.00003955,0.00010052,-0.00004258,-0.00004479,0.00000472,0.00000
 032,-0.00000089,-0.00003254,0.00001430,0.00000025,-0.00000070,0.000005
 26,0.00000123,0.00000593,0.00000082,-0.00000369,-0.00000289,0.00000417
 ,-0.00000029,-0.00005312,-0.00024873,0.00006999,0.00002126,-0.00000791
 ,-0.00003151,-0.00004573,-0.00000685,-0.00000591,-0.00001446,0.0000333
 1,-0.00004186,-0.00020041,0.00011159,-0.00016772,-0.00016853,0.0003425
 4,0.00034449,0.00000795,0.00000247,-0.00000065,0.00008973,-0.00002024,
 0.00000068,0.00001164,-0.00000313,-0.00001318,0.00000391,-0.00000676,-
 0.00001101,0.00008483,0.00001633,-0.00010536,0.00263900,0.01789591,0.0
 0302536,-0.00266008,-0.00021798,0.00043564,0.11662653,0.00261534,-0.00
 361744,-0.00007597,0.19673063,-0.41905351,-0.08382573,-0.00327863,-0.0
 0082273,-0.00002753,-0.00046964,-0.00079551,0.00081479,-0.00032100,-0.
 00020449,0.00001162,0.00053066,0.00040830,0.00032013,0.00028428,-0.000
 41826,0.00002253,-0.00013961,0.00001451,-0.00010700,-0.00015838,0.0001
 7164,0.00019703,0.00034880,0.00022333,-0.00046287,0.00012563,-0.001187
 47,-0.00082183,0.00024239,-0.00003693,0.00000719,-0.00090401,0.0003234
 7,0.00007568,-0.00007016,-0.00014983,0.00001860,-0.00001491,-0.0000030
 0,0.00001956,0.00005996,0.00004290,0.00018614,-0.00001855,-0.00000058,
 -0.00000562,-0.00000045,0.00000591,0.00000660,-0.00000424,-0.00000349,
 0.00000221,-0.00000148,-0.00000025,0.00000272,-0.00000209,-0.00000194,
 0.00000334,-0.00000749,0.00002981,0.00000162,-0.00000035,0.00000110,0.
 00000054,0.00001933,-0.00001306,-0.00000132,-0.00000018,0.00000240,-0.
 00000136,-0.00000003,0.,0.00000002,0.00000359,0.00000162,0.00000137,-0
 .00008002,-0.00025292,0.00014280,0.00003882,-0.00001923,-0.00005021,-0
 .00000563,0.00002049,-0.00000707,0.00000850,-0.00002786,-0.00004776,-0
 .00010486,0.00020566,-0.00017882,0.00016897,0.00036485,0.00040727,0.00
 000627,0.00000471,0.00000469,0.00007769,-0.00002880,-0.00000986,0.0000
 1988,0.00000019,-0.00000752,0.00002309,-0.00000345,0.00000804,0.000007
 01,0.00002430,0.00000340,0.00184877,0.00185519,0.00045630,-0.00044674,
 0.00009479,0.00003618,-0.19713113,0.42284560,0.00304460,-0.00947147,-0
 .00234573,0.02720865,-0.07514792,-0.02659532,-0.00141854,-0.00036434,-
 0.00028652,-0.00231130,0.00015109,0.00292721,-0.00206463,0.00116100,-0
 .00035839,0.00423268,0.00083364,-0.00114733,-0.00035611,-0.00115564,0.
 00084820,-0.00002515,0.00028636,0.00000987,-0.00010903,0.00027702,-0.0
 0019113,0.00076021,-0.00006499,-0.00019908,-0.00005136,-0.00153983,-0.
 00006891,-0.00006967,-0.00013412,-0.00007273,-0.00074100,-0.00010058,-
 0.00010278,-0.00013813,-0.00018867,-0.00016068,0.00002892,-0.00005502,
 0.00003749,0.00006480,-0.00001164,0.00019923,-0.00000943,0.00003415,0.
 00004592,0.00000433,-0.00001185,0.00000462,-0.00000258,0.00000585,0.00
 001223,-0.00002902,-0.00001255,-0.00001677,0.00004164,0.00000233,-0.00
 002214,-0.00006753,0.00005461,-0.00003983,-0.00000523,-0.00000018,0.00
 000118,0.00003040,-0.00001052,0.00001743,-0.00001159,-0.00000215,-0.00
 000122,-0.00000083,-0.00000339,0.00000213,0.00002024,-0.00001378,-0.00
 000217,0.00012569,-0.00024066,0.00014663,0.00003484,0.00009099,-0.0000
 8928,0.00002701,-0.00005954,0.00001566,0.00008964,0.00013854,-0.000068
 53,-0.00031196,-0.00010017,-0.00004868,0.00024601,0.00051662,0.0000800
 1,0.00001678,0.00001847,0.00000679,0.00004873,0.00004154,0.00003383,0.
 00003495,0.00002107,0.00000471,-0.00000340,-0.00000253,0.00001143,-0.0
 0017993,-0.00000055,-0.00012256,0.00207395,0.00210523,0.00010961,0.000
 13883,0.00007347,0.00084107,-0.03036648,0.08288012,0.02658448\\0.00000
 004,0.00000055,0.00000013,0.00000039,0.00000118,-0.00000037,0.00000044
 ,0.00000062,-0.00000072,0.00000036,-0.00000007,-0.00000085,0.00000036,
 -0.00000054,-0.00000105,0.00000039,-0.00000037,-0.00000104,0.00000007,
 -0.00000037,-0.00000030,-0.00000032,-0.00000118,0.00000023,-0.00000030
 ,-0.00000062,0.00000044,-0.00000023,0.00000034,0.00000067,-0.00000030,
 0.00000081,0.00000104,-0.00000036,-0.00000099,0.00000039,-0.00000030,0
 .00000059,0.00000095,0.00000021,-0.00000024,-0.00000060,-0.00000021,-0
 .00000057,0.00000025,-0.00000018,0.00000032,0.00000055,0.00000013,-0.0
 0000032,-0.00000049,0.00000014,-0.00000056,-0.00000056,-0.00000007,-0.
 00000117,-0.00000041,-0.00000016,-0.00000153,-0.00000023,-0.00000016,-
 0.00000126,-0.00000017,0.00000004,-0.00000073,-0.00000035,-0.00000004,
 -0.00000056,-0.00000019,0.00000012,0.00000006,-0.00000024,0.00000008,-
 0.00000011,-0.00000029,-0.00000014,-0.00000082,-0.00000004,-0.00000009
 ,-0.00000062,0.,-0.00000019,0.00000100,0.00000085,-0.00000022,0.000001
 20,0.00000103,-0.00000009,0.00000105,0.00000067,0.00000008,0.00000071,
 0.00000013,0.00000011,0.00000054,-0.00000002,-0.00000002,0.00000074,0.
 00000036,-0.00000005,0.00000049,0.00000033,-0.00000011,0.00000045,0.00
 000046,-0.00000015,0.00000060,0.00000059,0.00000007,0.00000024,-0.0000
 0007,0.00000010,0.00000011,-0.00000017,0.00000014,0.00000034,-0.000000
 20,0.00000022,0.00000022,-0.00000043,0.00000020,0.00000048,-0.00000027
 \\\@


 THE 2ND LAW OF THERMODYNAMICS HAS THE SAME
 DEGREE OF TRUTH AS THE STATEMENT THAT IF YOU THROW
 A TUMBLERFULL OF WATER INTO THE SEA, YOU CANNOT GET
 THE SAME TUMBLERFULL OF WATER OUT AGAIN.
          - J.C. MAXWELL, LETTER TO LORD RAYLEIGH, DECEMBER 6,1870
 Job cpu time:       0 days 13 hours 19 minutes 16.0 seconds.
 Elapsed time:       0 days  0 hours 12 minutes 52.2 seconds.
 File lengths (MBytes):  RWF=   1294 Int=      0 D2E=      0 Chk=     22 Scr=      2
 Normal termination of Gaussian 16 at Thu May 11 17:00:27 2023.
