 Entering Gaussian System, Link 0=g16
 Input=TEAB_far_energy_sin.com
 Output=TEAB_far_energy_sin.log
 Initial command:
 /opt/ohpc/pub/apps/gaussian/avx2/g16/l1.exe "/scratch/g16-tmp/Gau-1707792.inp" -scrdir="/scratch/g16-tmp/"
 Entering Link 1 = /opt/ohpc/pub/apps/gaussian/avx2/g16/l1.exe PID=   1707793.
  
 Copyright (c) 1988-2017, Gaussian, Inc.  All Rights Reserved.
  
 This is part of the Gaussian(R) 16 program.  It is based on
 the Gaussian(R) 09 system (copyright 2009, Gaussian, Inc.),
 the Gaussian(R) 03 system (copyright 2003, Gaussian, Inc.),
 the Gaussian(R) 98 system (copyright 1998, Gaussian, Inc.),
 the Gaussian(R) 94 system (copyright 1995, Gaussian, Inc.),
 the Gaussian 92(TM) system (copyright 1992, Gaussian, Inc.),
 the Gaussian 90(TM) system (copyright 1990, Gaussian, Inc.),
 the Gaussian 88(TM) system (copyright 1988, Gaussian, Inc.),
 the Gaussian 86(TM) system (copyright 1986, Carnegie Mellon
 University), and the Gaussian 82(TM) system (copyright 1983,
 Carnegie Mellon University). Gaussian is a federally registered
 trademark of Gaussian, Inc.
  
 This software contains proprietary and confidential information,
 including trade secrets, belonging to Gaussian, Inc.
  
 This software is provided under written license and may be
 used, copied, transmitted, or stored only in accord with that
 written license.
  
 The following legend is applicable only to US Government
 contracts under FAR:
  
                    RESTRICTED RIGHTS LEGEND
  
 Use, reproduction and disclosure by the US Government is
 subject to restrictions as set forth in subparagraphs (a)
 and (c) of the Commercial Computer Software - Restricted
 Rights clause in FAR 52.227-19.
  
 Gaussian, Inc.
 340 Quinnipiac St., Bldg. 40, Wallingford CT 06492
  
  
 ---------------------------------------------------------------
 Warning -- This program may not be used in any manner that
 competes with the business of Gaussian, Inc. or will provide
 assistance to any competitor of Gaussian, Inc.  The licensee
 of this program is prohibited from giving any competitor of
 Gaussian, Inc. access to this program.  By using this program,
 the user acknowledges that Gaussian, Inc. is engaged in the
 business of creating and licensing software in the field of
 computational chemistry and represents and warrants to the
 licensee that it is not a competitor of Gaussian, Inc. and that
 it will not use this program in any manner prohibited above.
 ---------------------------------------------------------------
  

 Cite this work as:
 Gaussian 16, Revision B.01,
 M. J. Frisch, G. W. Trucks, H. B. Schlegel, G. E. Scuseria, 
 M. A. Robb, J. R. Cheeseman, G. Scalmani, V. Barone, 
 G. A. Petersson, H. Nakatsuji, X. Li, M. Caricato, A. V. Marenich, 
 J. Bloino, B. G. Janesko, R. Gomperts, B. Mennucci, H. P. Hratchian, 
 J. V. Ortiz, A. F. Izmaylov, J. L. Sonnenberg, D. Williams-Young, 
 F. Ding, F. Lipparini, F. Egidi, J. Goings, B. Peng, A. Petrone, 
 T. Henderson, D. Ranasinghe, V. G. Zakrzewski, J. Gao, N. Rega, 
 G. Zheng, W. Liang, M. Hada, M. Ehara, K. Toyota, R. Fukuda, 
 J. Hasegawa, M. Ishida, T. Nakajima, Y. Honda, O. Kitao, H. Nakai, 
 T. Vreven, K. Throssell, J. A. Montgomery, Jr., J. E. Peralta, 
 F. Ogliaro, M. J. Bearpark, J. J. Heyd, E. N. Brothers, K. N. Kudin, 
 V. N. Staroverov, T. A. Keith, R. Kobayashi, J. Normand, 
 K. Raghavachari, A. P. Rendell, J. C. Burant, S. S. Iyengar, 
 J. Tomasi, M. Cossi, J. M. Millam, M. Klene, C. Adamo, R. Cammi, 
 J. W. Ochterski, R. L. Martin, K. Morokuma, O. Farkas, 
 J. B. Foresman, and D. J. Fox, Gaussian, Inc., Wallingford CT, 2016.
 
 ******************************************
 Gaussian 16:  ES64L-G16RevB.01 20-Dec-2017
                 2-Jun-2023 
 ******************************************
 %mem=64GB
 %nprocshared=64
 Will use up to   64 processors via shared memory.
 %chk=TEAB_far_energy_sin.chk
 -----------------------------------------------------
 # b3lyp/gen nosymm scf=(qc,maxcycle=1024) pseudo=read
 -----------------------------------------------------
 1/38=1,172=1/1;
 2/12=2,15=1,17=6,18=5,40=1/2;
 3/5=7,11=2,16=1,17=8,25=1,30=1,74=-5/1,2,3;
 4//1;
 5/5=2,7=1024,8=3,38=5/8;
 6/7=2,8=2,9=2,10=2,28=1/1;
 99/5=1,9=1/99;
 -------------------
 TEAB_far_energy_sin
 -------------------
 Symbolic Z-matrix:
 Charge =  0 Multiplicity = 1
 N                    -2.02067  -6.94364  -1.57553 
 C                    -2.95216  -6.14874  -0.63544 
 C                    -4.36762  -5.86045  -1.12496 
 H                    -2.4233   -5.20696  -0.42919 
 H                    -3.00556  -6.74482   0.2796 
 H                    -4.82341  -5.21768  -0.36506 
 H                    -4.39681  -5.30479  -2.06214 
 H                    -4.99291  -6.75368  -1.21611 
 C                    -2.79987  -8.06569  -2.23847 
 C                    -1.99892  -9.00775  -3.13375 
 H                    -3.59273  -7.59424  -2.81689 
 H                    -3.27332  -8.62211  -1.42408 
 H                    -2.69728  -9.74029  -3.55066 
 H                    -1.53223  -8.48922  -3.97485 
 H                    -1.2298   -9.56426  -2.59306 
 C                    -0.91447  -7.56614  -0.71008 
 C                    -0.23822  -6.63492   0.2938 
 H                    -0.17936  -7.96318  -1.4115 
 H                    -1.38277  -8.41203  -0.19683 
 H                     0.66697  -7.14032   0.64652 
 H                     0.04095  -5.66413  -0.12642 
 H                    -0.86857  -6.43596   1.16281 
 C                    -1.33141  -6.03423  -2.60772 
 C                    -2.21597  -5.38425  -3.66234 
 H                    -0.5679   -6.66055  -3.07343 
 H                    -0.85809  -5.23153  -2.02829 
 H                    -1.53987  -4.90495  -4.37742 
 H                    -2.84523  -6.08327  -4.22282 
 H                    -2.82322  -4.5849   -3.23555 
 Br                    0.80029   4.43056   1.00709 
 
                          Input orientation:                          
 ---------------------------------------------------------------------
 Center     Atomic      Atomic             Coordinates (Angstroms)
 Number     Number       Type             X           Y           Z
 ---------------------------------------------------------------------
      1          7           0       -2.020667   -6.943636   -1.575534
      2          6           0       -2.952163   -6.148736   -0.635437
      3          6           0       -4.367617   -5.860453   -1.124962
      4          1           0       -2.423301   -5.206957   -0.429194
      5          1           0       -3.005562   -6.744822    0.279599
      6          1           0       -4.823414   -5.217678   -0.365060
      7          1           0       -4.396808   -5.304792   -2.062141
      8          1           0       -4.992911   -6.753685   -1.216113
      9          6           0       -2.799874   -8.065695   -2.238469
     10          6           0       -1.998921   -9.007748   -3.133748
     11          1           0       -3.592730   -7.594244   -2.816895
     12          1           0       -3.273323   -8.622110   -1.424083
     13          1           0       -2.697285   -9.740289   -3.550659
     14          1           0       -1.532230   -8.489218   -3.974853
     15          1           0       -1.229799   -9.564264   -2.593061
     16          6           0       -0.914469   -7.566140   -0.710079
     17          6           0       -0.238220   -6.634925    0.293804
     18          1           0       -0.179364   -7.963185   -1.411501
     19          1           0       -1.382774   -8.412032   -0.196829
     20          1           0        0.666973   -7.140324    0.646516
     21          1           0        0.040946   -5.664134   -0.126417
     22          1           0       -0.868570   -6.435964    1.162810
     23          6           0       -1.331414   -6.034229   -2.607723
     24          6           0       -2.215969   -5.384255   -3.662345
     25          1           0       -0.567901   -6.660547   -3.073430
     26          1           0       -0.858095   -5.231533   -2.028289
     27          1           0       -1.539866   -4.904950   -4.377417
     28          1           0       -2.845230   -6.083272   -4.222824
     29          1           0       -2.823222   -4.584901   -3.235546
     30         35           0        0.800291    4.430557    1.007088
 ---------------------------------------------------------------------
                    Distance matrix (angstroms):
                    1          2          3          4          5
     1  N    0.000000
     2  C    1.543805   0.000000
     3  C    2.623828   1.525206   0.000000
     4  H    2.119496   1.099627   2.165990   0.000000
     5  H    2.109754   1.093371   2.147113   1.790655   0.000000
     6  H    3.507074   2.107499   1.094697   2.400994   2.460150
     7  H    2.927224   2.198801   1.089915   2.563361   3.081071
     8  H    2.999917   2.206309   1.094150   3.100726   2.487326
     9  C    1.518441   2.503525   2.925886   3.404066   2.850909
    10  C    2.586322   3.914611   4.421697   4.684093   4.217238
    11  H    2.106098   2.694175   2.543446   3.573209   3.264132
    12  H    2.099847   2.615853   2.985582   3.657268   2.549204
    13  H    3.490014   4.632789   4.871051   5.510872   4.872241
    14  H    2.895536   4.318074   4.803301   4.913140   4.828456
    15  H    2.920364   4.297053   5.071433   5.009281   4.399405
    16  C    1.536293   2.483305   3.873723   2.814465   2.454933
    17  C    2.601316   2.909528   4.434481   2.708579   2.769560
    18  H    2.111110   3.403368   4.695216   3.687407   3.511641
    19  H    2.112800   2.788883   4.035006   3.377750   2.374871
    20  H    3.492793   3.965450   5.488470   3.800639   3.711949
    21  H    2.826184   3.074515   4.524496   2.524519   3.257905
    22  H    3.013899   2.767228   4.220005   2.542071   2.332850
    23  C    1.538670   2.555357   3.383387   2.573438   3.412381
    24  C    2.612392   3.207582   3.360754   3.244640   4.244234
    25  H    2.105792   3.448255   4.344482   3.542233   4.146335
    26  H    2.118456   2.677017   3.678082   2.237762   3.496856
    27  H    3.498279   4.188556   4.414479   4.057109   5.217393
    28  H    2.903149   3.589577   3.458910   3.916322   4.553588
    29  H    2.993888   3.036902   2.909769   2.902155   4.129740
    30  Br  12.000000  11.344613  11.711438  10.263339  11.828053
                    6          7          8          9         10
     6  H    0.000000
     7  H    1.752046   0.000000
     8  H    1.764182   1.780560   0.000000
     9  C    3.964288   3.194351   2.752452   0.000000
    10  C    5.477958   4.539833   4.209762   1.526602   0.000000
    11  H    3.629620   2.541217   2.286821   1.088790   2.153745
    12  H    3.887733   3.560047   2.547792   1.094064   2.166973
    13  H    5.926422   4.977720   4.431682   2.129937   1.094597
    14  H    5.879241   4.690932   4.753844   2.191192   1.092763
    15  H    6.063899   5.334316   4.894523   2.199223   1.092521
    16  C    4.573201   4.366744   4.189253   2.477959   3.021331
    17  C    4.844243   4.961208   4.990094   3.875768   4.525314
    18  H    5.495457   5.027646   4.967021   2.749810   2.714412
    19  H    4.697893   4.713675   4.101481   2.509266   3.059413
    20  H    5.904592   6.028920   5.971027   4.604180   4.988453
    21  H    4.890631   4.854875   5.264435   4.277677   4.938102
    22  H    4.411281   4.912059   4.771835   4.237294   5.133437
    23  C    4.229699   3.197871   3.982556   2.533688   3.092585
    24  C    4.206971   2.706109   3.945985   3.091681   3.668273
    25  H    5.246573   4.185846   4.799897   2.766461   2.749693
    26  H    4.300032   3.539633   4.480321   3.441970   4.096745
    27  H    5.194083   3.698986   5.033407   4.019083   4.311658
    28  H    4.420951   2.771638   3.755303   2.805303   3.233402
    29  H    3.555399   2.090764   3.672776   3.620861   4.500157
    30  Br  11.251546  11.454563  12.790273  13.403400  14.337718
                   11         12         13         14         15
    11  H    0.000000
    12  H    1.760243   0.000000
    13  H    2.438389   2.470722   0.000000
    14  H    2.527351   3.091196   1.761384   0.000000
    15  H    3.084562   2.535775   1.761106   1.776665   0.000000
    16  C    3.407719   2.681243   3.996780   3.448543   2.763612
    17  C    4.674343   4.013962   5.519980   4.830559   4.230632
    18  H    3.709760   3.163372   3.751536   2.945799   2.250100
    19  H    3.523837   2.263727   3.839320   3.781767   2.663263
    20  H    5.508750   4.691375   5.974473   5.292737   4.468567
    21  H    4.916055   4.627952   5.986517   5.026574   4.786454
    22  H    4.959910   4.153804   6.039830   5.572421   4.901358
    23  C    2.755168   3.445162   4.060740   2.817151   3.531528
    24  C    2.737573   4.075723   4.383968   3.194676   4.425876
    25  H    3.176034   3.726578   3.774498   2.255334   3.016693
    26  H    3.698991   4.206472   5.101873   3.854359   4.385167
    27  H    3.725826   5.054140   5.040203   3.606812   4.998927
    28  H    2.195092   3.802882   3.721218   2.752096   4.169299
    29  H    3.134255   4.447814   5.166544   4.178149   5.267432
    30  Br  13.361037  13.888018  15.291140  14.042114  14.592373
                   16         17         18         19         20
    16  C    0.000000
    17  C    1.527172   0.000000
    18  H    1.090879   2.162361   0.000000
    19  H    1.094654   2.169985   1.767792   0.000000
    20  H    2.126647   1.095084   2.372514   2.555374   0.000000
    21  H    2.207058   1.094054   2.643031   3.095623   1.780020
    22  H    2.187948   1.091832   3.071561   2.453134   1.766515
    23  C    2.474196   3.158286   2.545395   3.386590   3.975810
    24  C    3.894920   4.596388   3.983082   4.676692   5.473702
    25  H    2.554532   3.383432   2.147053   3.465047   3.948810
    26  H    2.681650   2.783140   2.881497   3.707440   3.622692
    27  H    4.574103   5.148534   4.472183   5.459086   5.925111
    28  H    4.273887   5.244116   4.306327   4.875504   6.096179
    29  H    4.348460   4.831267   4.661537   5.094666   5.812233
    30  Br  12.239681  11.136973  12.665470  13.082327  11.577265
                   21         22         23         24         25
    21  H    0.000000
    22  H    1.756430   0.000000
    23  C    2.859584   3.820018   0.000000
    24  C    4.204139   5.118955   1.522213   0.000000
    25  H    3.169924   4.252831   1.091838   2.166073   0.000000
    26  H    2.147681   3.410847   1.097313   2.130090   1.794049
    27  H    4.598514   5.786947   2.109630   1.094612   2.393161
    28  H    5.028542   5.747750   2.214181   1.094866   2.615450
    29  H    4.362899   5.156805   2.172603   1.090816   3.069375
    30  Br  10.186472  10.995027  11.274873  11.279714  11.896855
                   26         27         28         29         30
    26  H    0.000000
    27  H    2.467766   0.000000
    28  H    3.080608   1.765309   0.000000
    29  H    2.395272   1.747370   1.794524   0.000000
    30  Br  10.262540  11.028187  12.295625  10.602276   0.000000
 Symmetry turned off by external request.
 Stoichiometry    C8H20BrN
 Framework group  C1[X(C8H20BrN)]
 Deg. of freedom    84
 Full point group                 C1      NOp   1
 Rotational constants (GHZ):           1.2320666           0.0685718           0.0678874
 General basis read from cards:  (5D, 7F)
 ======================================================================================================
                                       Pseudopotential Parameters
 ======================================================================================================
  Center     Atomic      Valence      Angular      Power
  Number     Number     Electrons     Momentum     of R      Exponent        Coefficient   SO-Coeffient
 ======================================================================================================
    1          7
                                   No pseudopotential on this center.
    2          6
                                   No pseudopotential on this center.
    3          6
                                   No pseudopotential on this center.
    4          1
                                   No pseudopotential on this center.
    5          1
                                   No pseudopotential on this center.
    6          1
                                   No pseudopotential on this center.
    7          1
                                   No pseudopotential on this center.
    8          1
                                   No pseudopotential on this center.
    9          6
                                   No pseudopotential on this center.
   10          6
                                   No pseudopotential on this center.
   11          1
                                   No pseudopotential on this center.
   12          1
                                   No pseudopotential on this center.
   13          1
                                   No pseudopotential on this center.
   14          1
                                   No pseudopotential on this center.
   15          1
                                   No pseudopotential on this center.
   16          6
                                   No pseudopotential on this center.
   17          6
                                   No pseudopotential on this center.
   18          1
                                   No pseudopotential on this center.
   19          1
                                   No pseudopotential on this center.
   20          1
                                   No pseudopotential on this center.
   21          1
                                   No pseudopotential on this center.
   22          1
                                   No pseudopotential on this center.
   23          6
                                   No pseudopotential on this center.
   24          6
                                   No pseudopotential on this center.
   25          1
                                   No pseudopotential on this center.
   26          1
                                   No pseudopotential on this center.
   27          1
                                   No pseudopotential on this center.
   28          1
                                   No pseudopotential on this center.
   29          1
                                   No pseudopotential on this center.
   30         35
                                   No pseudopotential on this center.
 ======================================================================================================
   294 basis functions,   515 primitive gaussians,   305 cartesian basis functions
    55 alpha electrons       55 beta electrons
       nuclear repulsion energy       651.2411703607 Hartrees.
 NAtoms=   30 NActive=   30 NUniq=   30 SFac= 1.00D+00 NAtFMM=   60 NAOKFM=F Big=F
 Integral buffers will be    131072 words long.
 Raffenetti 2 integral format.
 Two-electron integral symmetry is turned off.
 One-electron integrals computed using PRISM.
   1 Symmetry operations used in ECPInt.
 ECPInt:  NShTT=    7021 NPrTT=   29199 LenC2=    5995 LenP2D=   17852.
 LDataN:  DoStor=T MaxTD1= 4 Len=   56
 NBasis=   294 RedAO= T EigKep=  3.93D-05  NBF=   294
 NBsUse=   294 1.00D-06 EigRej= -1.00D+00 NBFU=   294
 ExpMin= 3.50D-02 ExpMax= 5.74D+05 ExpMxC= 5.74D+03 IAcc=3 IRadAn=         5 AccDes= 0.00D+00
 Harris functional with IExCor=  402 and IRadAn=       5 diagonalized for initial guess.
 HarFok:  IExCor=  402 AccDes= 0.00D+00 IRadAn=         5 IDoV= 1 UseB2=F ITyADJ=14
 ICtDFT=  3500011 ScaDFX=  1.000000  1.000000  1.000000  1.000000
 FoFCou: FMM=F IPFlag=           0 FMFlag=      100000 FMFlg1=           0
         NFxFlg=           0 DoJE=T BraDBF=F KetDBF=T FulRan=T
         wScrn=  0.000000 ICntrl=       500 IOpCl=  0 I1Cent=   200000004 NGrid=           0
         NMat0=    1 NMatS0=      1 NMatT0=    0 NMatD0=    1 NMtDS0=    0 NMtDT0=    0
 Symmetry not used in FoFCou.
 Gradient too large for Newton-Raphson -- use scaled steepest descent instead.
     Minimum is close to point  3 DX= -3.54D-03 DF= -2.68D-05 DXR=  8.94D-03 DFR=  8.08D-05 which will be used.
 Gradient too large for Newton-Raphson -- use scaled steepest descent instead.
     Accept linear search using points  2 and  3.
 Gradient too large for Newton-Raphson -- use scaled steepest descent instead.
 Gradient too large for Newton-Raphson -- use scaled steepest descent instead.
     Minimum is close to point  2 DX=  6.20D-04 DF= -1.17D-09 DXR=  1.24D-03 DFR=  1.53D-06 which will be used.
 Gradient too large for Newton-Raphson -- use scaled steepest descent instead.
     Minimum is close to point  2 DX=  1.56D-03 DF= -1.76D-09 DXR=  3.10D-03 DFR=  9.63D-06 which will be used.
 Gradient too large for Newton-Raphson -- use scaled steepest descent instead.
     Minimum is close to point  2 DX=  1.68D-02 DF= -4.98D-08 DXR=  3.24D-02 DFR=  1.05D-03 which will be used.
 LinEq1:  Iter=  0 NonCon=     1 RMS=1.42D-04 Max=1.01D-02 NDo=     1
 AX will form     1 AO Fock derivatives at one time.
 LinEq1:  Iter=  1 NonCon=     1 RMS=2.94D-04 Max=2.25D-02 NDo=     1
 LinEq1:  Iter=  2 NonCon=     1 RMS=4.42D-04 Max=2.06D-02 NDo=     1
 LinEq1:  Iter=  3 NonCon=     1 RMS=1.01D-03 Max=8.41D-02 NDo=     1
 LinEq1:  Iter=  4 NonCon=     1 RMS=2.15D-03 Max=1.06D-01 NDo=     1
 LinEq1:  Iter=  5 NonCon=     1 RMS=2.66D-03 Max=2.03D-01 NDo=     1
 LinEq1:  Iter=  6 NonCon=     1 RMS=1.30D-03 Max=4.74D-02 NDo=     1
 LinEq1:  Iter=  7 NonCon=     1 RMS=1.37D-03 Max=1.19D-01 NDo=     1
 LinEq1:  Iter=  8 NonCon=     1 RMS=1.50D-03 Max=9.14D-02 NDo=     1
 LinEq1:  Iter=  9 NonCon=     1 RMS=3.82D-03 Max=3.60D-01 NDo=     1
 LinEq1:  Iter= 10 NonCon=     1 RMS=3.13D-03 Max=2.33D-01 NDo=     1
 LinEq1:  Iter= 11 NonCon=     1 RMS=1.12D-03 Max=4.14D-02 NDo=     1
 LinEq1:  Iter= 12 NonCon=     1 RMS=7.35D-04 Max=3.74D-02 NDo=     1
 LinEq1:  Iter= 13 NonCon=     1 RMS=3.76D-04 Max=3.12D-02 NDo=     1
 LinEq1:  Iter= 14 NonCon=     1 RMS=4.21D-04 Max=2.72D-02 NDo=     1
 LinEq1:  Iter= 15 NonCon=     1 RMS=3.67D-04 Max=2.17D-02 NDo=     1
 LinEq1:  Iter= 16 NonCon=     1 RMS=2.88D-04 Max=8.31D-03 NDo=     1
 LinEq1:  Iter= 17 NonCon=     1 RMS=1.12D-04 Max=2.48D-03 NDo=     1
 LinEq1:  Iter= 18 NonCon=     1 RMS=2.68D-05 Max=5.68D-04 NDo=     1
 LinEq1:  Iter= 19 NonCon=     1 RMS=1.48D-05 Max=3.09D-04 NDo=     1
 LinEq1:  Iter= 20 NonCon=     1 RMS=4.80D-06 Max=1.24D-04 NDo=     1
 LinEq1:  Iter= 21 NonCon=     1 RMS=2.01D-06 Max=5.27D-05 NDo=     1
 LinEq1:  Iter= 22 NonCon=     1 RMS=1.08D-06 Max=4.68D-05 NDo=     1
 LinEq1:  Iter= 23 NonCon=     1 RMS=7.54D-07 Max=4.96D-05 NDo=     1
 LinEq1:  Iter= 24 NonCon=     1 RMS=4.59D-07 Max=1.72D-05 NDo=     1
 LinEq1:  Iter= 25 NonCon=     1 RMS=1.41D-07 Max=5.33D-06 NDo=     1
 LinEq1:  Iter= 26 NonCon=     1 RMS=4.35D-08 Max=1.31D-06 NDo=     1
 LinEq1:  Iter= 27 NonCon=     1 RMS=2.74D-08 Max=7.10D-07 NDo=     1
 LinEq1:  Iter= 28 NonCon=     1 RMS=8.77D-09 Max=4.60D-07 NDo=     1
 LinEq1:  Iter= 29 NonCon=     0 RMS=2.39D-09 Max=4.18D-08 NDo=     1
 Linear equations converged to 1.621D-08 1.621D-07 after    29 iterations.
 Incorrect curvature in search direction -- initial direction reversed.
 LinEq1:  Iter=  0 NonCon=     1 RMS=1.50D-04 Max=1.04D-02 NDo=     1
 LinEq1:  Iter=  1 NonCon=     1 RMS=2.88D-04 Max=2.27D-02 NDo=     1
 LinEq1:  Iter=  2 NonCon=     1 RMS=4.06D-04 Max=1.84D-02 NDo=     1
 LinEq1:  Iter=  3 NonCon=     1 RMS=7.77D-04 Max=6.02D-02 NDo=     1
 LinEq1:  Iter=  4 NonCon=     1 RMS=1.58D-03 Max=9.37D-02 NDo=     1
 LinEq1:  Iter=  5 NonCon=     1 RMS=1.83D-03 Max=1.41D-01 NDo=     1
 LinEq1:  Iter=  6 NonCon=     1 RMS=1.05D-03 Max=3.88D-02 NDo=     1
 LinEq1:  Iter=  7 NonCon=     1 RMS=8.44D-04 Max=6.83D-02 NDo=     1
 LinEq1:  Iter=  8 NonCon=     1 RMS=1.09D-03 Max=5.14D-02 NDo=     1
 LinEq1:  Iter=  9 NonCon=     1 RMS=1.80D-03 Max=1.80D-01 NDo=     1
 LinEq1:  Iter= 10 NonCon=     1 RMS=2.25D-03 Max=1.59D-01 NDo=     1
 LinEq1:  Iter= 11 NonCon=     1 RMS=7.91D-04 Max=2.92D-02 NDo=     1
 LinEq1:  Iter= 12 NonCon=     1 RMS=5.23D-04 Max=2.47D-02 NDo=     1
 LinEq1:  Iter= 13 NonCon=     1 RMS=2.01D-04 Max=1.24D-02 NDo=     1
 LinEq1:  Iter= 14 NonCon=     1 RMS=2.25D-04 Max=1.67D-02 NDo=     1
 LinEq1:  Iter= 15 NonCon=     1 RMS=2.33D-04 Max=1.42D-02 NDo=     1
 LinEq1:  Iter= 16 NonCon=     1 RMS=2.04D-04 Max=7.67D-03 NDo=     1
 LinEq1:  Iter= 17 NonCon=     1 RMS=7.65D-05 Max=1.84D-03 NDo=     1
 LinEq1:  Iter= 18 NonCon=     1 RMS=2.25D-05 Max=4.56D-04 NDo=     1
 LinEq1:  Iter= 19 NonCon=     1 RMS=1.19D-05 Max=2.78D-04 NDo=     1
 LinEq1:  Iter= 20 NonCon=     1 RMS=3.48D-06 Max=8.97D-05 NDo=     1
 LinEq1:  Iter= 21 NonCon=     1 RMS=1.51D-06 Max=3.73D-05 NDo=     1
 LinEq1:  Iter= 22 NonCon=     1 RMS=6.86D-07 Max=2.61D-05 NDo=     1
 LinEq1:  Iter= 23 NonCon=     1 RMS=3.11D-07 Max=1.24D-05 NDo=     1
 LinEq1:  Iter= 24 NonCon=     1 RMS=1.03D-07 Max=5.61D-06 NDo=     1
 LinEq1:  Iter= 25 NonCon=     1 RMS=6.36D-08 Max=4.62D-06 NDo=     1
 LinEq1:  Iter= 26 NonCon=     1 RMS=2.98D-08 Max=9.18D-07 NDo=     1
 LinEq1:  Iter= 27 NonCon=     1 RMS=1.83D-08 Max=5.28D-07 NDo=     1
 LinEq1:  Iter= 28 NonCon=     1 RMS=7.15D-09 Max=3.12D-07 NDo=     1
 LinEq1:  Iter= 29 NonCon=     0 RMS=1.70D-09 Max=2.60D-08 NDo=     1
 Linear equations converged to 1.621D-08 1.621D-07 after    29 iterations.
 Incorrect curvature in search direction -- initial direction reversed.
 Restarting incremental Fock formation.
 LinEq1:  Iter=  0 NonCon=     1 RMS=1.40D-04 Max=9.82D-03 NDo=     1
 LinEq1:  Iter=  1 NonCon=     1 RMS=2.32D-04 Max=1.89D-02 NDo=     1
 LinEq1:  Iter=  2 NonCon=     1 RMS=3.09D-04 Max=1.38D-02 NDo=     1
 LinEq1:  Iter=  3 NonCon=     1 RMS=4.27D-04 Max=2.58D-02 NDo=     1
 LinEq1:  Iter=  4 NonCon=     1 RMS=6.61D-04 Max=4.86D-02 NDo=     1
 LinEq1:  Iter=  5 NonCon=     1 RMS=7.39D-04 Max=5.58D-02 NDo=     1
 LinEq1:  Iter=  6 NonCon=     1 RMS=6.51D-04 Max=2.38D-02 NDo=     1
 LinEq1:  Iter=  7 NonCon=     1 RMS=3.18D-04 Max=1.85D-02 NDo=     1
 LinEq1:  Iter=  8 NonCon=     1 RMS=4.31D-04 Max=2.99D-02 NDo=     1
 LinEq1:  Iter=  9 NonCon=     1 RMS=3.04D-04 Max=1.94D-02 NDo=     1
 LinEq1:  Iter= 10 NonCon=     1 RMS=6.04D-04 Max=5.28D-02 NDo=     1
 LinEq1:  Iter= 11 NonCon=     1 RMS=3.44D-04 Max=1.37D-02 NDo=     1
 LinEq1:  Iter= 12 NonCon=     1 RMS=2.23D-04 Max=8.30D-03 NDo=     1
 LinEq1:  Iter= 13 NonCon=     1 RMS=7.01D-05 Max=4.70D-03 NDo=     1
 LinEq1:  Iter= 14 NonCon=     1 RMS=5.58D-05 Max=2.63D-03 NDo=     1
 LinEq1:  Iter= 15 NonCon=     1 RMS=5.77D-05 Max=4.16D-03 NDo=     1
 LinEq1:  Iter= 16 NonCon=     1 RMS=7.39D-05 Max=3.65D-03 NDo=     1
 LinEq1:  Iter= 17 NonCon=     1 RMS=2.96D-05 Max=7.84D-04 NDo=     1
 LinEq1:  Iter= 18 NonCon=     1 RMS=1.06D-05 Max=2.14D-04 NDo=     1
 LinEq1:  Iter= 19 NonCon=     1 RMS=5.26D-06 Max=1.27D-04 NDo=     1
 LinEq1:  Iter= 20 NonCon=     1 RMS=1.56D-06 Max=4.13D-05 NDo=     1
 LinEq1:  Iter= 21 NonCon=     1 RMS=6.23D-07 Max=1.41D-05 NDo=     1
 LinEq1:  Iter= 22 NonCon=     1 RMS=2.65D-07 Max=7.76D-06 NDo=     1
 LinEq1:  Iter= 23 NonCon=     1 RMS=1.51D-07 Max=7.69D-06 NDo=     1
 LinEq1:  Iter= 24 NonCon=     1 RMS=8.89D-08 Max=6.34D-06 NDo=     1
 LinEq1:  Iter= 25 NonCon=     1 RMS=4.23D-08 Max=1.50D-06 NDo=     1
 LinEq1:  Iter= 26 NonCon=     1 RMS=1.62D-08 Max=5.20D-07 NDo=     1
 LinEq1:  Iter= 27 NonCon=     1 RMS=7.97D-09 Max=2.89D-07 NDo=     1
 LinEq1:  Iter= 28 NonCon=     0 RMS=3.25D-09 Max=1.27D-07 NDo=     1
 Linear equations converged to 1.621D-08 1.621D-07 after    28 iterations.
 LinEq1:  Iter=  0 NonCon=     1 RMS=7.61D-05 Max=5.36D-03 NDo=     1
 LinEq1:  Iter=  1 NonCon=     1 RMS=9.60D-05 Max=6.96D-03 NDo=     1
 LinEq1:  Iter=  2 NonCon=     1 RMS=1.18D-04 Max=4.44D-03 NDo=     1
 LinEq1:  Iter=  3 NonCon=     1 RMS=7.36D-05 Max=6.45D-03 NDo=     1
 LinEq1:  Iter=  4 NonCon=     1 RMS=6.80D-05 Max=4.50D-03 NDo=     1
 LinEq1:  Iter=  5 NonCon=     1 RMS=4.61D-05 Max=3.64D-03 NDo=     1
 LinEq1:  Iter=  6 NonCon=     1 RMS=6.33D-05 Max=3.82D-03 NDo=     1
 LinEq1:  Iter=  7 NonCon=     1 RMS=4.92D-05 Max=2.99D-03 NDo=     1
 LinEq1:  Iter=  8 NonCon=     1 RMS=1.37D-05 Max=6.30D-04 NDo=     1
 LinEq1:  Iter=  9 NonCon=     1 RMS=1.07D-05 Max=7.43D-04 NDo=     1
 LinEq1:  Iter= 10 NonCon=     1 RMS=1.22D-05 Max=7.47D-04 NDo=     1
 LinEq1:  Iter= 11 NonCon=     1 RMS=7.36D-06 Max=2.71D-04 NDo=     1
 LinEq1:  Iter= 12 NonCon=     1 RMS=2.60D-06 Max=1.51D-04 NDo=     1
 LinEq1:  Iter= 13 NonCon=     1 RMS=3.35D-06 Max=2.72D-04 NDo=     1
 LinEq1:  Iter= 14 NonCon=     1 RMS=3.61D-06 Max=1.98D-04 NDo=     1
 LinEq1:  Iter= 15 NonCon=     1 RMS=2.64D-06 Max=1.60D-04 NDo=     1
 LinEq1:  Iter= 16 NonCon=     1 RMS=9.41D-07 Max=2.74D-05 NDo=     1
 LinEq1:  Iter= 17 NonCon=     1 RMS=4.74D-07 Max=1.04D-05 NDo=     1
 LinEq1:  Iter= 18 NonCon=     1 RMS=2.37D-07 Max=1.17D-05 NDo=     1
 LinEq1:  Iter= 19 NonCon=     1 RMS=2.16D-07 Max=2.00D-05 NDo=     1
 LinEq1:  Iter= 20 NonCon=     1 RMS=1.39D-07 Max=4.98D-06 NDo=     1
 LinEq1:  Iter= 21 NonCon=     1 RMS=3.82D-08 Max=1.55D-06 NDo=     1
 LinEq1:  Iter= 22 NonCon=     1 RMS=1.70D-08 Max=4.63D-07 NDo=     1
 LinEq1:  Iter= 23 NonCon=     1 RMS=7.67D-09 Max=3.43D-07 NDo=     1
 LinEq1:  Iter= 24 NonCon=     0 RMS=2.98D-09 Max=1.06D-07 NDo=     1
 Linear equations converged to 1.621D-08 1.621D-07 after    24 iterations.
     Accept linear search using points  1 and  2.
     Minimum is close to point  2 DX= -6.46D-03 DF= -7.17D-10 DXR=  6.50D-03 DFR=  4.25D-05 which will be used.
 LinEq1:  Iter=  0 NonCon=     1 RMS=7.20D-06 Max=5.43D-04 NDo=     1
 LinEq1:  Iter=  1 NonCon=     1 RMS=6.41D-06 Max=5.15D-04 NDo=     1
 LinEq1:  Iter=  2 NonCon=     1 RMS=4.06D-06 Max=2.41D-04 NDo=     1
 LinEq1:  Iter=  3 NonCon=     1 RMS=2.63D-06 Max=1.96D-04 NDo=     1
 LinEq1:  Iter=  4 NonCon=     1 RMS=1.19D-06 Max=4.41D-05 NDo=     1
 LinEq1:  Iter=  5 NonCon=     1 RMS=1.48D-06 Max=1.01D-04 NDo=     1
 LinEq1:  Iter=  6 NonCon=     1 RMS=1.80D-06 Max=1.22D-04 NDo=     1
 LinEq1:  Iter=  7 NonCon=     1 RMS=1.14D-06 Max=3.97D-05 NDo=     1
 LinEq1:  Iter=  8 NonCon=     1 RMS=8.77D-07 Max=4.58D-05 NDo=     1
 LinEq1:  Iter=  9 NonCon=     1 RMS=5.22D-07 Max=3.41D-05 NDo=     1
 LinEq1:  Iter= 10 NonCon=     1 RMS=3.99D-07 Max=2.34D-05 NDo=     1
 LinEq1:  Iter= 11 NonCon=     1 RMS=3.30D-07 Max=1.94D-05 NDo=     1
 LinEq1:  Iter= 12 NonCon=     1 RMS=1.89D-07 Max=8.87D-06 NDo=     1
 LinEq1:  Iter= 13 NonCon=     1 RMS=6.20D-08 Max=2.78D-06 NDo=     1
 LinEq1:  Iter= 14 NonCon=     1 RMS=3.79D-08 Max=2.05D-06 NDo=     1
 LinEq1:  Iter= 15 NonCon=     1 RMS=4.56D-08 Max=4.34D-06 NDo=     1
 LinEq1:  Iter= 16 NonCon=     1 RMS=2.68D-08 Max=8.49D-07 NDo=     1
 LinEq1:  Iter= 17 NonCon=     1 RMS=8.96D-09 Max=1.92D-07 NDo=     1
 LinEq1:  Iter= 18 NonCon=     1 RMS=4.73D-09 Max=1.12D-07 NDo=     1
 LinEq1:  Iter= 19 NonCon=     1 RMS=2.17D-09 Max=1.84D-07 NDo=     1
 LinEq1:  Iter= 20 NonCon=     1 RMS=2.01D-09 Max=1.43D-07 NDo=     1
 LinEq1:  Iter= 21 NonCon=     1 RMS=9.92D-10 Max=2.03D-08 NDo=     1
 LinEq1:  Iter= 22 NonCon=     1 RMS=4.75D-10 Max=1.26D-08 NDo=     1
 LinEq1:  Iter= 23 NonCon=     1 RMS=1.38D-10 Max=5.70D-09 NDo=     1
 LinEq1:  Iter= 24 NonCon=     0 RMS=5.24D-11 Max=2.09D-09 NDo=     1
 Linear equations converged to 4.894D-10 4.894D-09 after    24 iterations.
 SCF Done:  E(RB3LYP) =  -2942.98581084     a.u. after   12 cycles
            Convg  =    0.6484D-06                   161 Fock formations.
              S**2 =  0.0000                  -V/T =  2.0010

 **********************************************************************

            Population analysis using the SCF Density.

 **********************************************************************

 Alpha  occ. eigenvalues -- -482.43236 -61.51746 -56.08444 -56.08438 -56.08438
 Alpha  occ. eigenvalues --  -14.56470 -10.35049 -10.35014 -10.34983 -10.34871
 Alpha  occ. eigenvalues --  -10.29371 -10.28727 -10.28678 -10.28675  -8.28772
 Alpha  occ. eigenvalues --   -6.29580  -6.29560  -6.29560  -2.41682  -2.41677
 Alpha  occ. eigenvalues --   -2.41677  -2.41661  -2.41661  -1.11471  -0.89872
 Alpha  occ. eigenvalues --   -0.89465  -0.89382  -0.84317  -0.77213  -0.76181
 Alpha  occ. eigenvalues --   -0.75236  -0.68686  -0.62987  -0.62801  -0.60990
 Alpha  occ. eigenvalues --   -0.58621  -0.56995  -0.54742  -0.54611  -0.51507
 Alpha  occ. eigenvalues --   -0.50677  -0.50447  -0.49854  -0.49731  -0.49648
 Alpha  occ. eigenvalues --   -0.49346  -0.48740  -0.47771  -0.46870  -0.46557
 Alpha  occ. eigenvalues --   -0.45751  -0.45264  -0.07840  -0.07807  -0.07807
 Alpha virt. eigenvalues --   -0.08938  -0.07416  -0.07261  -0.06708  -0.04911
 Alpha virt. eigenvalues --   -0.04679  -0.03894  -0.03454  -0.03260  -0.03076
 Alpha virt. eigenvalues --   -0.01607  -0.01082  -0.00617  -0.00056   0.00383
 Alpha virt. eigenvalues --    0.00559   0.00835   0.01671   0.01959   0.02724
 Alpha virt. eigenvalues --    0.03381   0.03508   0.04284   0.04473   0.04874
 Alpha virt. eigenvalues --    0.05785   0.06044   0.06921   0.07431   0.08482
 Alpha virt. eigenvalues --    0.08732   0.08816   0.09314   0.10179   0.10937
 Alpha virt. eigenvalues --    0.11257   0.11627   0.11802   0.12874   0.13129
 Alpha virt. eigenvalues --    0.13604   0.13860   0.14290   0.15122   0.15639
 Alpha virt. eigenvalues --    0.16295   0.16390   0.16393   0.16475   0.17145
 Alpha virt. eigenvalues --    0.17637   0.18104   0.18494   0.19453   0.19681
 Alpha virt. eigenvalues --    0.20981   0.21444   0.21918   0.22082   0.23657
 Alpha virt. eigenvalues --    0.25297   0.26421   0.28332   0.29033   0.31265
 Alpha virt. eigenvalues --    0.33640   0.35507   0.44779   0.49045   0.49824
 Alpha virt. eigenvalues --    0.50714   0.52786   0.53223   0.57175   0.57455
 Alpha virt. eigenvalues --    0.57974   0.59016   0.59745   0.60723   0.60789
 Alpha virt. eigenvalues --    0.62200   0.62335   0.64770   0.66406   0.68731
 Alpha virt. eigenvalues --    0.68743   0.68743   0.68779   0.68779   0.69478
 Alpha virt. eigenvalues --    0.70413   0.75072   0.77938   0.79725   0.79811
 Alpha virt. eigenvalues --    0.79825   0.79831   0.80702   0.81365   0.83078
 Alpha virt. eigenvalues --    0.83387   0.84204   0.84729   0.85888   0.86522
 Alpha virt. eigenvalues --    0.87830   0.88331   0.89185   0.89695   0.89945
 Alpha virt. eigenvalues --    0.92201   0.93619   0.94338   0.94975   0.97803
 Alpha virt. eigenvalues --    0.99198   1.01111   1.01632   1.03578   1.03893
 Alpha virt. eigenvalues --    1.04529   1.05509   1.08272   1.08531   1.12959
 Alpha virt. eigenvalues --    1.13746   1.14550   1.23720   1.27053   1.29509
 Alpha virt. eigenvalues --    1.31688   1.31955   1.36560   1.42542   1.44030
 Alpha virt. eigenvalues --    1.45652   1.48009   1.50512   1.52324   1.53193
 Alpha virt. eigenvalues --    1.56625   1.58745   1.61654   1.69521   1.70624
 Alpha virt. eigenvalues --    1.72248   1.72923   1.74464   1.78029   1.81541
 Alpha virt. eigenvalues --    1.82587   1.86009   1.86995   1.88262   1.89554
 Alpha virt. eigenvalues --    1.92658   1.93551   1.94179   1.94873   1.95917
 Alpha virt. eigenvalues --    1.97251   1.98407   2.00041   2.00677   2.01534
 Alpha virt. eigenvalues --    2.02323   2.02796   2.03337   2.04327   2.04425
 Alpha virt. eigenvalues --    2.05346   2.06825   2.08863   2.10403   2.11748
 Alpha virt. eigenvalues --    2.15200   2.15821   2.17139   2.18650   2.20430
 Alpha virt. eigenvalues --    2.24624   2.25898   2.29822   2.32267   2.33941
 Alpha virt. eigenvalues --    2.34093   2.37503   2.40278   2.41516   2.42794
 Alpha virt. eigenvalues --    2.44598   2.51268   2.52290   2.55333   2.57961
 Alpha virt. eigenvalues --    2.59441   2.60972   2.62009   2.63013   2.63870
 Alpha virt. eigenvalues --    2.66033   2.67330   2.69315   2.69929   2.70856
 Alpha virt. eigenvalues --    2.72145   2.73612   2.74712   2.77058   2.77940
 Alpha virt. eigenvalues --    2.78253   2.80849   2.81061   2.83413   2.83585
 Alpha virt. eigenvalues --    2.84672   2.86896   2.86977   3.16431   3.16945
 Alpha virt. eigenvalues --    3.17155   3.18118   3.22511   3.23472   3.24724
 Alpha virt. eigenvalues --    3.24762   3.31836   3.32710   3.33378   3.34367
 Alpha virt. eigenvalues --    3.36998   3.39434   3.40363   3.41495   3.43286
 Alpha virt. eigenvalues --    3.44008   3.44668   3.45057   8.66930
          Condensed to atoms (all electrons):
               1          2          3          4          5          6
     1  N    7.340807   0.085606   0.004558  -0.020733  -0.018215   0.001542
     2  C    0.085606   6.106067  -0.309097   0.378392   0.334721  -0.044816
     3  C    0.004558  -0.309097   5.569070  -0.016770   0.018083   0.412853
     4  H   -0.020733   0.378392  -0.016770   0.503999  -0.024990  -0.003463
     5  H   -0.018215   0.334721   0.018083  -0.024990   0.518988  -0.002835
     6  H    0.001542  -0.044816   0.412853  -0.003463  -0.002835   0.491802
     7  H    0.021847  -0.153545   0.494376  -0.003755   0.004083  -0.021393
     8  H   -0.024662  -0.060791   0.417505   0.003852  -0.004885  -0.020680
     9  C    0.083392  -0.088761  -0.004142   0.023331  -0.024320  -0.006057
    10  C    0.022803   0.010950  -0.006276   0.000843   0.003085  -0.001385
    11  H   -0.020210  -0.032671   0.014803   0.000166   0.000132   0.000268
    12  H   -0.016802  -0.018084  -0.009197   0.000106   0.001074   0.000030
    13  H   -0.002242  -0.005950   0.001722   0.000002  -0.000002  -0.000000
    14  H    0.007216   0.000900  -0.001952   0.000005   0.000001  -0.000000
    15  H   -0.003996  -0.003908   0.000689  -0.000000   0.000005   0.000000
    16  C    0.038187  -0.137848   0.065441  -0.042710   0.012168  -0.002746
    17  C    0.036544   0.039520  -0.026934   0.015413  -0.027128  -0.000316
    18  H   -0.036362   0.029876   0.002817  -0.000124   0.000438   0.000002
    19  H   -0.004449  -0.025650   0.001588   0.000155   0.000097  -0.000006
    20  H   -0.003363  -0.008212  -0.002014   0.000199   0.000104  -0.000000
    21  H    0.036029  -0.008383  -0.000492  -0.001273   0.000123   0.000000
    22  H   -0.027497   0.031333   0.009414  -0.002072   0.001262   0.000010
    23  C    0.181996  -0.315077   0.053271  -0.015250   0.018109   0.003404
    24  C    0.052958   0.079778  -0.054330  -0.000964   0.001423   0.000175
    25  H   -0.016380   0.027999  -0.001320   0.000329  -0.000185   0.000003
    26  H   -0.009343  -0.024660  -0.004312   0.002143   0.000131  -0.000001
    27  H    0.001363  -0.000001   0.000713  -0.000027   0.000003  -0.000002
    28  H   -0.002158  -0.011274   0.006912   0.000117   0.000001   0.000018
    29  H    0.003355   0.037765  -0.028163  -0.000184  -0.000027   0.000180
    30  Br  -0.000002   0.000023   0.000003   0.000000   0.000000  -0.000000
               7          8          9         10         11         12
     1  N    0.021847  -0.024662   0.083392   0.022803  -0.020210  -0.016802
     2  C   -0.153545  -0.060791  -0.088761   0.010950  -0.032671  -0.018084
     3  C    0.494376   0.417505  -0.004142  -0.006276   0.014803  -0.009197
     4  H   -0.003755   0.003852   0.023331   0.000843   0.000166   0.000106
     5  H    0.004083  -0.004885  -0.024320   0.003085   0.000132   0.001074
     6  H   -0.021393  -0.020680  -0.006057  -0.001385   0.000268   0.000030
     7  H    0.517918  -0.026665  -0.014225   0.001481  -0.000881   0.000266
     8  H   -0.026665   0.521053   0.031081   0.004094  -0.001991  -0.000221
     9  C   -0.014225   0.031081   5.996804  -0.187817   0.358350   0.365493
    10  C    0.001481   0.004094  -0.187817   5.501921  -0.001827  -0.001455
    11  H   -0.000881  -0.001991   0.358350  -0.001827   0.522270  -0.027526
    12  H    0.000266  -0.000221   0.365493  -0.001455  -0.027526   0.518725
    13  H    0.000001   0.000010  -0.041424   0.409016  -0.002812  -0.002451
    14  H    0.000007   0.000002  -0.126547   0.474605  -0.004918   0.003954
    15  H   -0.000001  -0.000005  -0.089429   0.436728   0.004231  -0.003856
    16  C    0.009014  -0.012261  -0.173033  -0.007042   0.017691  -0.036184
    17  C   -0.003075   0.001577   0.036372  -0.036763  -0.000996   0.005295
    18  H    0.000005  -0.000003  -0.036159   0.005381  -0.000061   0.000218
    19  H   -0.000001   0.000009  -0.001858  -0.014028   0.000331   0.001999
    20  H    0.000000   0.000000  -0.004097  -0.000357   0.000002  -0.000011
    21  H    0.000003  -0.000001   0.008095  -0.001801   0.000007  -0.000002
    22  H    0.000001  -0.000006  -0.010099   0.000710  -0.000001   0.000015
    23  C   -0.002660   0.000969  -0.033308  -0.105299  -0.022892   0.027428
    24  C    0.003296  -0.000562  -0.087624   0.027336   0.005153   0.000898
    25  H   -0.000036   0.000011  -0.043384   0.020517   0.000049  -0.000022
    26  H    0.000018   0.000001   0.029356   0.001832   0.000131  -0.000108
    27  H    0.000144  -0.000003   0.001902   0.003208   0.000111  -0.000000
    28  H   -0.000446  -0.000026   0.007643   0.001304   0.000634   0.000066
    29  H    0.001901   0.000108  -0.010173   0.003664  -0.000020  -0.000003
    30  Br   0.000000  -0.000000   0.000001   0.000000  -0.000000  -0.000000
              13         14         15         16         17         18
     1  N   -0.002242   0.007216  -0.003996   0.038187   0.036544  -0.036362
     2  C   -0.005950   0.000900  -0.003908  -0.137848   0.039520   0.029876
     3  C    0.001722  -0.001952   0.000689   0.065441  -0.026934   0.002817
     4  H    0.000002   0.000005  -0.000000  -0.042710   0.015413  -0.000124
     5  H   -0.000002   0.000001   0.000005   0.012168  -0.027128   0.000438
     6  H   -0.000000  -0.000000   0.000000  -0.002746  -0.000316   0.000002
     7  H    0.000001   0.000007  -0.000001   0.009014  -0.003075   0.000005
     8  H    0.000010   0.000002  -0.000005  -0.012261   0.001577  -0.000003
     9  C   -0.041424  -0.126547  -0.089429  -0.173033   0.036372  -0.036159
    10  C    0.409016   0.474605   0.436728  -0.007042  -0.036763   0.005381
    11  H   -0.002812  -0.004918   0.004231   0.017691  -0.000996  -0.000061
    12  H   -0.002451   0.003954  -0.003856  -0.036184   0.005295   0.000218
    13  H    0.497523  -0.021063  -0.020578  -0.001425  -0.001282   0.000145
    14  H   -0.021063   0.517728  -0.026866  -0.010837   0.001154  -0.000018
    15  H   -0.020578  -0.026866   0.517282   0.020925   0.004902  -0.001743
    16  C   -0.001425  -0.010837   0.020925   6.136825  -0.255225   0.389617
    17  C   -0.001282   0.001154   0.004902  -0.255225   5.479161  -0.013806
    18  H    0.000145  -0.000018  -0.001743   0.389617  -0.013806   0.531150
    19  H    0.000024   0.000165  -0.000025   0.334321   0.006662  -0.028434
    20  H   -0.000000  -0.000000   0.000011  -0.043221   0.412364  -0.004470
    21  H    0.000000   0.000002   0.000003  -0.156102   0.478960  -0.002517
    22  H    0.000000   0.000000  -0.000005  -0.047301   0.405096   0.004235
    23  C    0.000803   0.013582  -0.009227  -0.101074  -0.022438  -0.032760
    24  C    0.003444  -0.001562   0.000434  -0.061001   0.014999   0.006402
    25  H    0.000107  -0.000945  -0.000202  -0.016635  -0.008067   0.003363
    26  H   -0.000001   0.000071   0.000002  -0.022410  -0.007360  -0.000760
    27  H   -0.000000  -0.000029   0.000003  -0.006563   0.000854  -0.000010
    28  H   -0.000022   0.000471   0.000004  -0.004193  -0.001712  -0.000012
    29  H    0.000001   0.000005  -0.000001   0.002468  -0.000680   0.000002
    30  Br  -0.000000  -0.000000  -0.000000   0.000025  -0.000003   0.000000
              19         20         21         22         23         24
     1  N   -0.004449  -0.003363   0.036029  -0.027497   0.181996   0.052958
     2  C   -0.025650  -0.008212  -0.008383   0.031333  -0.315077   0.079778
     3  C    0.001588  -0.002014  -0.000492   0.009414   0.053271  -0.054330
     4  H    0.000155   0.000199  -0.001273  -0.002072  -0.015250  -0.000964
     5  H    0.000097   0.000104   0.000123   0.001262   0.018109   0.001423
     6  H   -0.000006  -0.000000   0.000000   0.000010   0.003404   0.000175
     7  H   -0.000001   0.000000   0.000003   0.000001  -0.002660   0.003296
     8  H    0.000009   0.000000  -0.000001  -0.000006   0.000969  -0.000562
     9  C   -0.001858  -0.004097   0.008095  -0.010099  -0.033308  -0.087624
    10  C   -0.014028  -0.000357  -0.001801   0.000710  -0.105299   0.027336
    11  H    0.000331   0.000002   0.000007  -0.000001  -0.022892   0.005153
    12  H    0.001999  -0.000011  -0.000002   0.000015   0.027428   0.000898
    13  H    0.000024  -0.000000   0.000000   0.000000   0.000803   0.003444
    14  H    0.000165  -0.000000   0.000002   0.000000   0.013582  -0.001562
    15  H   -0.000025   0.000011   0.000003  -0.000005  -0.009227   0.000434
    16  C    0.334321  -0.043221  -0.156102  -0.047301  -0.101074  -0.061001
    17  C    0.006662   0.412364   0.478960   0.405096  -0.022438   0.014999
    18  H   -0.028434  -0.004470  -0.002517   0.004235  -0.032760   0.006402
    19  H    0.518164  -0.000803   0.003693  -0.005937   0.023217  -0.000373
    20  H   -0.000803   0.495586  -0.018312  -0.020913   0.010618  -0.000380
    21  H    0.003693  -0.018312   0.508514  -0.027452  -0.005362   0.004822
    22  H   -0.005937  -0.020913  -0.027452   0.516229  -0.006513   0.000687
    23  C    0.023217   0.010618  -0.005362  -0.006513   5.998170  -0.154653
    24  C   -0.000373  -0.000380   0.004822   0.000687  -0.154653   5.390813
    25  H    0.000253   0.000016  -0.000169   0.000024   0.341819   0.006816
    26  H   -0.000039  -0.000008   0.000862   0.000045   0.366987  -0.009598
    27  H    0.000002  -0.000000   0.000008  -0.000000  -0.051119   0.411515
    28  H   -0.000003   0.000000  -0.000001   0.000000  -0.093862   0.450089
    29  H    0.000005  -0.000000   0.000008  -0.000001  -0.105659   0.452424
    30  Br  -0.000000   0.000000   0.000000  -0.000000   0.000042  -0.000021
              25         26         27         28         29         30
     1  N   -0.016380  -0.009343   0.001363  -0.002158   0.003355  -0.000002
     2  C    0.027999  -0.024660  -0.000001  -0.011274   0.037765   0.000023
     3  C   -0.001320  -0.004312   0.000713   0.006912  -0.028163   0.000003
     4  H    0.000329   0.002143  -0.000027   0.000117  -0.000184   0.000000
     5  H   -0.000185   0.000131   0.000003   0.000001  -0.000027   0.000000
     6  H    0.000003  -0.000001  -0.000002   0.000018   0.000180  -0.000000
     7  H   -0.000036   0.000018   0.000144  -0.000446   0.001901   0.000000
     8  H    0.000011   0.000001  -0.000003  -0.000026   0.000108  -0.000000
     9  C   -0.043384   0.029356   0.001902   0.007643  -0.010173   0.000001
    10  C    0.020517   0.001832   0.003208   0.001304   0.003664   0.000000
    11  H    0.000049   0.000131   0.000111   0.000634  -0.000020  -0.000000
    12  H   -0.000022  -0.000108  -0.000000   0.000066  -0.000003  -0.000000
    13  H    0.000107  -0.000001  -0.000000  -0.000022   0.000001  -0.000000
    14  H   -0.000945   0.000071  -0.000029   0.000471   0.000005  -0.000000
    15  H   -0.000202   0.000002   0.000003   0.000004  -0.000001  -0.000000
    16  C   -0.016635  -0.022410  -0.006563  -0.004193   0.002468   0.000025
    17  C   -0.008067  -0.007360   0.000854  -0.001712  -0.000680  -0.000003
    18  H    0.003363  -0.000760  -0.000010  -0.000012   0.000002   0.000000
    19  H    0.000253  -0.000039   0.000002  -0.000003   0.000005  -0.000000
    20  H    0.000016  -0.000008  -0.000000   0.000000  -0.000000   0.000000
    21  H   -0.000169   0.000862   0.000008  -0.000001   0.000008   0.000000
    22  H    0.000024   0.000045  -0.000000   0.000000  -0.000001  -0.000000
    23  C    0.341819   0.366987  -0.051119  -0.093862  -0.105659   0.000042
    24  C    0.006816  -0.009598   0.411515   0.450089   0.452424  -0.000021
    25  H    0.533141  -0.025207  -0.004572  -0.003171   0.004487   0.000000
    26  H   -0.025207   0.511470  -0.001515   0.004169  -0.006297   0.000000
    27  H   -0.004572  -0.001515   0.494683  -0.021220  -0.021448   0.000000
    28  H   -0.003171   0.004169  -0.021220   0.526149  -0.025592   0.000000
    29  H    0.004487  -0.006297  -0.021448  -0.025592   0.516234   0.000000
    30  Br   0.000000   0.000000   0.000000   0.000000   0.000000  35.992314
 Mulliken charges:
               1
     1  N   -0.711791
     2  C    0.085797
     3  C   -0.608820
     4  H    0.203263
     5  H    0.188556
     6  H    0.193412
     7  H    0.172323
     8  H    0.172494
     9  C    0.040639
    10  C   -0.565429
    11  H    0.192480
    12  H    0.190353
    13  H    0.186457
    14  H    0.174871
    15  H    0.174623
    16  C    0.111128
    17  C   -0.533085
    18  H    0.183587
    19  H    0.190923
    20  H    0.187261
    21  H    0.180739
    22  H    0.178735
    23  C    0.036737
    24  C   -0.542391
    25  H    0.181359
    26  H    0.194400
    27  H    0.192003
    28  H    0.166115
    29  H    0.175641
    30  Br  -0.992383
 Sum of Mulliken charges =   0.00000
 Mulliken charges with hydrogens summed into heavy atoms:
               1
     1  N   -0.711791
     2  C    0.477617
     3  C   -0.070591
     9  C    0.423471
    10  C   -0.029478
    16  C    0.485638
    17  C    0.013650
    23  C    0.412497
    24  C   -0.008632
    30  Br  -0.992383
 Electronic spatial extent (au):  <R**2>=          18541.8349
 Charge=              0.0000 electrons
 Dipole moment (field-independent basis, Debye):
    X=            -13.4729    Y=            -53.3778    Z=            -12.4827  Tot=             56.4493
 Quadrupole moment (field-independent basis, Debye-Ang):
   XX=            -57.2854   YY=             53.9875   ZZ=            -65.3893
   XY=             48.4325   XZ=             12.7329   YZ=             31.8715
 Traceless Quadrupole moment (field-independent basis, Debye-Ang):
   XX=            -34.3897   YY=             76.8832   ZZ=            -42.4935
   XY=             48.4325   XZ=             12.7329   YZ=             31.8715
 Octapole moment (field-independent basis, Debye-Ang**2):
  XXX=            208.5420  YYY=          -1229.4168  ZZZ=            151.1979  XYY=           -429.2183
  XXY=             84.6139  XXZ=             29.1854  XZZ=             53.8182  YZZ=            115.8430
  YYZ=           -400.6552  XYZ=           -133.0307
 Hexadecapole moment (field-independent basis, Debye-Ang**3):
 XXXX=          -1964.6392 YYYY=          -8840.9489 ZZZZ=          -1702.5764 XXXY=          -2108.7180
 XXXZ=           -615.7504 YYYX=            332.0207 YYYZ=            104.8938 ZZZX=           -613.4839
 ZZZY=          -1971.4481 XXYY=          -2431.6718 XXZZ=           -599.7860 YYZZ=          -2639.6091
 XXYZ=           -509.2854 YYXZ=            544.3522 ZZXY=           -607.7739
 N-N= 6.512411703607D+02 E-N=-8.309770420276D+03  KE= 2.940147170605D+03
 1\1\GINC-SG12\SP\RB3LYP\Gen\C8H20Br1N1\YSH\02-Jun-2023\0\\# b3lyp/gen 
 nosymm scf=(qc,maxcycle=1024) pseudo=read\\TEAB_far_energy_sin\\0,1\N,
 0,-2.02066681,-6.94363583,-1.57553363\C,0,-2.95216281,-6.14873583,-0.6
 3543663\C,0,-4.36761681,-5.86045283,-1.12496163\H,0,-2.42330081,-5.206
 95683,-0.42919363\H,0,-3.00556181,-6.74482183,0.27959937\H,0,-4.823413
 81,-5.21767783,-0.36505963\H,0,-4.39680781,-5.30479183,-2.06214063\H,0
 ,-4.99291081,-6.75368483,-1.21611263\C,0,-2.79987381,-8.06569483,-2.23
 846863\C,0,-1.99892081,-9.00774783,-3.13374763\H,0,-3.59272981,-7.5942
 4383,-2.81689463\H,0,-3.27332281,-8.62210983,-1.42408263\H,0,-2.697284
 81,-9.74028883,-3.55065863\H,0,-1.53222981,-8.48921783,-3.97485263\H,0
 ,-1.22979881,-9.56426383,-2.59306063\C,0,-0.91446881,-7.56613983,-0.71
 007863\C,0,-0.23821981,-6.63492483,0.29380437\H,0,-0.17936381,-7.96318
 483,-1.41150063\H,0,-1.38277381,-8.41203183,-0.19682863\H,0,0.66697319
 ,-7.14032383,0.64651637\H,0,0.04094619,-5.66413383,-0.12641663\H,0,-0.
 86856981,-6.43596383,1.16281037\C,0,-1.33141381,-6.03422883,-2.6077226
 3\C,0,-2.21596881,-5.38425483,-3.66234463\H,0,-0.56790081,-6.66054683,
 -3.07342963\H,0,-0.85809481,-5.23153283,-2.02828863\H,0,-1.53986581,-4
 .90494983,-4.37741663\H,0,-2.84522981,-6.08327183,-4.22282363\H,0,-2.8
 2322181,-4.58490083,-3.23554563\Br,0,0.800291,4.430557,1.007088\\Versi
 on=ES64L-G16RevB.01\HF=-2942.9858108\RMSD=3.999e-09\Dipole=-5.3006542,
 -21.0004237,-4.9110899\Quadrupole=-25.5678906,57.1607923,-31.5929017,3
 6.0084,9.466616,23.6956856\PG=C01 [X(C8H20Br1N1)]\\@


 Fatherhood is pretending the present you love most is soap-on-a-rope.
 -- Bill Cosby
 Job cpu time:       0 days  3 hours 37 minutes 12.7 seconds.
 Elapsed time:       0 days  0 hours  3 minutes 29.8 seconds.
 File lengths (MBytes):  RWF=    111 Int=      0 D2E=      0 Chk=      6 Scr=      2
 Normal termination of Gaussian 16 at Fri Jun  2 16:51:23 2023.
