 Entering Gaussian System, Link 0=g16
 Input=TEAB_opt_freq_sin.com
 Output=TEAB_opt_freq_sin.log
 Initial command:
 /opt/ohpc/pub/apps/gaussian/avx2/g16/l1.exe "/scratch/g16-tmp/Gau-664496.inp" -scrdir="/scratch/g16-tmp/"
 Entering Link 1 = /opt/ohpc/pub/apps/gaussian/avx2/g16/l1.exe PID=    664497.
  
 Copyright (c) 1988-2017, Gaussian, Inc.  All Rights Reserved.
  
 This is part of the Gaussian(R) 16 program.  It is based on
 the Gaussian(R) 09 system (copyright 2009, Gaussian, Inc.),
 the Gaussian(R) 03 system (copyright 2003, Gaussian, Inc.),
 the Gaussian(R) 98 system (copyright 1998, Gaussian, Inc.),
 the Gaussian(R) 94 system (copyright 1995, Gaussian, Inc.),
 the Gaussian 92(TM) system (copyright 1992, Gaussian, Inc.),
 the Gaussian 90(TM) system (copyright 1990, Gaussian, Inc.),
 the Gaussian 88(TM) system (copyright 1988, Gaussian, Inc.),
 the Gaussian 86(TM) system (copyright 1986, Carnegie Mellon
 University), and the Gaussian 82(TM) system (copyright 1983,
 Carnegie Mellon University). Gaussian is a federally registered
 trademark of Gaussian, Inc.
  
 This software contains proprietary and confidential information,
 including trade secrets, belonging to Gaussian, Inc.
  
 This software is provided under written license and may be
 used, copied, transmitted, or stored only in accord with that
 written license.
  
 The following legend is applicable only to US Government
 contracts under FAR:
  
                    RESTRICTED RIGHTS LEGEND
  
 Use, reproduction and disclosure by the US Government is
 subject to restrictions as set forth in subparagraphs (a)
 and (c) of the Commercial Computer Software - Restricted
 Rights clause in FAR 52.227-19.
  
 Gaussian, Inc.
 340 Quinnipiac St., Bldg. 40, Wallingford CT 06492
  
  
 ---------------------------------------------------------------
 Warning -- This program may not be used in any manner that
 competes with the business of Gaussian, Inc. or will provide
 assistance to any competitor of Gaussian, Inc.  The licensee
 of this program is prohibited from giving any competitor of
 Gaussian, Inc. access to this program.  By using this program,
 the user acknowledges that Gaussian, Inc. is engaged in the
 business of creating and licensing software in the field of
 computational chemistry and represents and warrants to the
 licensee that it is not a competitor of Gaussian, Inc. and that
 it will not use this program in any manner prohibited above.
 ---------------------------------------------------------------
  

 Cite this work as:
 Gaussian 16, Revision B.01,
 M. J. Frisch, G. W. Trucks, H. B. Schlegel, G. E. Scuseria, 
 M. A. Robb, J. R. Cheeseman, G. Scalmani, V. Barone, 
 G. A. Petersson, H. Nakatsuji, X. Li, M. Caricato, A. V. Marenich, 
 J. Bloino, B. G. Janesko, R. Gomperts, B. Mennucci, H. P. Hratchian, 
 J. V. Ortiz, A. F. Izmaylov, J. L. Sonnenberg, D. Williams-Young, 
 F. Ding, F. Lipparini, F. Egidi, J. Goings, B. Peng, A. Petrone, 
 T. Henderson, D. Ranasinghe, V. G. Zakrzewski, J. Gao, N. Rega, 
 G. Zheng, W. Liang, M. Hada, M. Ehara, K. Toyota, R. Fukuda, 
 J. Hasegawa, M. Ishida, T. Nakajima, Y. Honda, O. Kitao, H. Nakai, 
 T. Vreven, K. Throssell, J. A. Montgomery, Jr., J. E. Peralta, 
 F. Ogliaro, M. J. Bearpark, J. J. Heyd, E. N. Brothers, K. N. Kudin, 
 V. N. Staroverov, T. A. Keith, R. Kobayashi, J. Normand, 
 K. Raghavachari, A. P. Rendell, J. C. Burant, S. S. Iyengar, 
 J. Tomasi, M. Cossi, J. M. Millam, M. Klene, C. Adamo, R. Cammi, 
 J. W. Ochterski, R. L. Martin, K. Morokuma, O. Farkas, 
 J. B. Foresman, and D. J. Fox, Gaussian, Inc., Wallingford CT, 2016.
 
 ******************************************
 Gaussian 16:  ES64L-G16RevB.01 20-Dec-2017
                11-May-2023 
 ******************************************
 %mem=64GB
 %nprocshared=64
 Will use up to   64 processors via shared memory.
 %chk=TEAB_opt_freq_sin.chk
 ----------------------------------------------------------------------
 # opt=(calcall,tight,cartesian) freq b3lyp/gen nosymm scf=(qc,maxcycle
 =1024) pseudo=read
 ----------------------------------------------------------------------
 1/7=10,10=4,18=10,26=3,38=1/1,3;
 2/12=2,15=1,17=6,18=5,29=2,40=1/2;
 3/5=7,11=2,16=1,17=8,25=1,30=1,71=2,74=-5,140=1/1,2,3;
 4//1;
 5/5=2,7=1024,8=3,38=5/8;
 8/6=4,10=90,11=11/1;
 11/6=1,8=1,9=11,15=111,16=1,31=1/1,2,10;
 10/6=1,31=1/2;
 6/7=2,8=2,9=2,10=2,18=1,28=1/1;
 7/7=1,10=1,25=1,30=1/1,2,3,16;
 1/7=10,10=4,18=10,26=3/3(3);
 2/15=1,29=1/2;
 7/7=1,8=1,9=1,25=1,30=1,44=-1/16;
 99/12=1/99;
 2/15=1,29=1/2;
 3/5=7,6=1,11=2,16=1,17=8,25=1,30=1,71=2,74=-5,82=7,140=1/1,2,3;
 4/5=5,16=3,69=1/1;
 5/5=2,7=1024,8=3,38=5/8;
 8/6=4,10=90,11=11/1;
 11/6=1,8=1,9=11,15=111,16=1,31=1/1,2,10;
 10/6=1,31=1/2;
 7/7=1,10=1,25=1,30=1/1,2,3,16;
 1/7=10,10=4,18=10,26=3/3(-8);
 2/15=1,29=1/2;
 6/7=2,8=2,9=2,10=2,18=1,19=2,28=1/1;
 7/7=1,8=1,9=1,25=1,30=1,44=-1/16;
 99/12=1/99;
 -----------------
 TEAB_opt_freq_sin
 -----------------
 Symbolic Z-matrix:
 Charge =  0 Multiplicity = 1
 N                    -0.1419    0.59942   0.1331 
 C                    -1.06775   1.38496   1.0555 
 C                    -2.46832   1.67034   0.55622 
 H                    -0.54831   2.325     1.26666 
 H                    -1.12973   0.7923    1.96731 
 H                    -2.92427   2.32911   1.29493 
 H                    -2.48617   2.20136  -0.38938 
 H                    -3.09257   0.78081   0.47955 
 C                    -0.91596  -0.50934  -0.52061 
 C                    -0.12032  -1.45824  -1.39265 
 H                    -1.69665  -0.04117  -1.10981 
 H                    -1.4019   -1.05226   0.28972 
 H                    -0.81307  -2.19673  -1.79535 
 H                     0.34169  -0.95311  -2.23824 
 H                     0.64735  -1.99877  -0.84341 
 C                     0.94899  -0.00956   0.99343 
 C                     1.6169    0.92958   1.97803 
 H                     1.6858   -0.41156   0.30335 
 H                     0.48615  -0.84776   1.515 
 H                     2.49787   0.41941   2.36809 
 H                     1.92703   1.87372   1.53342 
 H                     0.97321   1.17407   2.81893 
 C                     0.54565   1.4857   -0.89175 
 C                    -0.34352   2.22278  -1.86421 
 H                     1.2449    0.83512  -1.41136 
 H                     1.09441   2.23643  -0.32315 
 H                     0.31083   2.66112  -2.61727 
 H                    -1.06426   1.58946  -2.38178 
 H                    -0.83984   3.0539   -1.36954 
 Br                    0.692     4.40667   0.92471 
 

 GradGradGradGradGradGradGradGradGradGradGradGradGradGradGradGradGradGrad
 Berny optimization.
 Initialization pass.
 No Z-matrix variables, so optimization will use Cartesian coordinates.
 Trust Radius=3.00D-01 FncErr=1.00D-07 GrdErr=1.00D-06 EigMax=2.50D+02 EigMin=1.00D-04
 Number of steps in this run=    100 maximum allowed number of steps=    180.
 GradGradGradGradGradGradGradGradGradGradGradGradGradGradGradGradGradGrad

 ---------------------------------------------------------------------------------------------------
                            Z-MATRIX (ANGSTROMS AND DEGREES)
   CD    Cent   Atom    N1       Length/X        N2       Alpha/Y        N3        Beta/Z          J
 ---------------------------------------------------------------------------------------------------
      1      1  N        0  -0.141902          0.599418          0.133096
      2      2  C        0  -1.067748          1.384957          1.055504
      3      3  C        0  -2.468321          1.670342          0.556220
      4      4  H        0  -0.548305          2.324997          1.266656
      5      5  H        0  -1.129730          0.792301          1.967308
      6      6  H        0  -2.924268          2.329114          1.294934
      7      7  H        0  -2.486165          2.201357         -0.389383
      8      8  H        0  -3.092566          0.780814          0.479546
      9      9  C        0  -0.915963         -0.509336         -0.520607
     10     10  C        0  -0.120315         -1.458243         -1.392653
     11     11  H        0  -1.696652         -0.041170         -1.109807
     12     12  H        0  -1.401902         -1.052256          0.289715
     13     13  H        0  -0.813072         -2.196729         -1.795353
     14     14  H        0   0.341692         -0.953106         -2.238240
     15     15  H        0   0.647345         -1.998765         -0.843413
     16     16  C        0   0.948991         -0.009562          0.993433
     17     17  C        0   1.616901          0.929576          1.978031
     18     18  H        0   1.685796         -0.411558          0.303351
     19     19  H        0   0.486151         -0.847764          1.515003
     20     20  H        0   2.497868          0.419414          2.368088
     21     21  H        0   1.927032          1.873719          1.533417
     22     22  H        0   0.973213          1.174068          2.818929
     23     23  C        0   0.545645          1.485696         -0.891751
     24     24  C        0  -0.343520          2.222780         -1.864208
     25     25  H        0   1.244904          0.835121         -1.411363
     26     26  H        0   1.094406          2.236431         -0.323150
     27     27  H        0   0.310830          2.661123         -2.617269
     28     28  H        0  -1.064261          1.589460         -2.381782
     29     29  H        0  -0.839843          3.053904         -1.369542
     30     30  Br       0   0.691996          4.406673          0.924711
 ---------------------------------------------------------------------------------------------------
                         Z-Matrix orientation:                         
 ---------------------------------------------------------------------
 Center     Atomic      Atomic             Coordinates (Angstroms)
 Number     Number       Type             X           Y           Z
 ---------------------------------------------------------------------
      1          7           0       -0.141902    0.599418    0.133096
      2          6           0       -1.067748    1.384957    1.055504
      3          6           0       -2.468321    1.670342    0.556220
      4          1           0       -0.548305    2.324997    1.266656
      5          1           0       -1.129730    0.792301    1.967308
      6          1           0       -2.924268    2.329114    1.294934
      7          1           0       -2.486165    2.201357   -0.389383
      8          1           0       -3.092566    0.780814    0.479546
      9          6           0       -0.915963   -0.509336   -0.520607
     10          6           0       -0.120315   -1.458243   -1.392653
     11          1           0       -1.696652   -0.041170   -1.109807
     12          1           0       -1.401902   -1.052256    0.289715
     13          1           0       -0.813072   -2.196729   -1.795353
     14          1           0        0.341692   -0.953106   -2.238240
     15          1           0        0.647345   -1.998765   -0.843413
     16          6           0        0.948991   -0.009562    0.993433
     17          6           0        1.616901    0.929576    1.978031
     18          1           0        1.685796   -0.411558    0.303351
     19          1           0        0.486151   -0.847764    1.515003
     20          1           0        2.497868    0.419414    2.368088
     21          1           0        1.927032    1.873719    1.533417
     22          1           0        0.973213    1.174068    2.818929
     23          6           0        0.545645    1.485696   -0.891751
     24          6           0       -0.343520    2.222780   -1.864208
     25          1           0        1.244904    0.835121   -1.411363
     26          1           0        1.094406    2.236431   -0.323150
     27          1           0        0.310830    2.661123   -2.617269
     28          1           0       -1.064261    1.589460   -2.381782
     29          1           0       -0.839843    3.053904   -1.369542
     30         35           0        0.691996    4.406673    0.924711
 ---------------------------------------------------------------------
                    Distance matrix (angstroms):
                    1          2          3          4          5
     1  N    0.000000
     2  C    1.524827   0.000000
     3  C    2.595792   1.514046   0.000000
     4  H    2.104221   1.094569   2.149361   0.000000
     5  H    2.092210   1.089252   2.133999   1.782730   0.000000
     6  H    3.476101   2.096527   1.089755   2.376135   2.456471
     7  H    2.886999   2.183143   1.084648   2.552068   3.062572
     8  H    2.976466   2.190115   1.089413   3.078524   2.462985
     9  C    1.501943   2.468909   2.884505   3.370894   2.815968
    10  C    2.561707   3.869740   4.370273   4.644137   4.168118
    11  H    2.091030   2.667945   2.510058   3.544718   3.238010
    12  H    2.083304   2.576451   2.936122   3.617856   2.508144
    13  H    3.462344   4.584836   4.819127   5.467358   4.815827
    14  H    2.875314   4.278061   4.752648   4.880814   4.785202
    15  H    2.885660   4.242288   5.012853   4.957508   4.341451
    16  C    1.516932   2.452707   3.832917   2.786882   2.431563
    17  C    2.570249   2.875025   4.388544   2.672334   2.750080
    18  H    2.095600   3.372715   4.653487   3.661680   3.484999
    19  H    2.097249   2.758765   3.998628   3.346369   2.346373
    20  H    3.463521   3.920302   5.432377   3.758134   3.668670
    21  H    2.804502   3.071807   4.507261   2.530238   3.271318
    22  H    2.964355   2.705488   4.148529   2.459513   2.300733
    23  C    1.519382   2.530808   3.348836   2.561225   3.385542
    24  C    2.581700   3.122687   3.267788   3.139219   4.164722
    25  H    2.089053   3.425801   4.284509   3.550650   4.129908
    26  H    2.101530   2.701963   3.713054   2.287756   3.504068
    27  H    3.467002   4.125329   4.333170   3.991988   5.156167
    28  H    2.855791   3.443366   3.257266   3.757436   4.422028
    29  H    2.961342   2.952655   2.876585   2.750607   4.041466
    30  Br   3.977088   3.499225   4.196534   2.447171   4.179639
                    6          7          8          9         10
     6  H    0.000000
     7  H    1.745044   0.000000
     8  H    1.757958   1.772203   0.000000
     9  C    3.922534   3.135380   2.720734   0.000000
    10  C    5.424882   4.471741   4.165667   1.514577   0.000000
    11  H    3.592780   2.484204   2.269422   1.084348   2.138442
    12  H    3.842099   3.496112   2.500905   1.089734   2.153521
    13  H    5.872842   4.911125   4.386003   2.117276   1.089698
    14  H    5.824327   4.622303   4.710304   2.174601   1.087948
    15  H    6.004955   5.259853   4.843884   2.183239   1.087718
    16  C    4.534583   4.312846   4.150055   2.453598   2.989230
    17  C    4.800786   4.904817   4.944357   3.837846   4.481195
    18  H    5.454100   4.971163   4.928036   2.730864   2.689613
    19  H    4.666041   4.664599   4.065914   2.494828   3.032317
    20  H    5.847920   5.968212   5.911865   4.567426   4.952136
    21  H    4.878460   4.825020   5.244182   4.240352   4.884208
    22  H    4.341319   4.828652   4.707220   4.189909   5.085498
    23  C    4.187271   3.155379   3.951442   2.500840   3.059605
    24  C    4.080655   2.601249   3.889692   3.097969   3.717811
    25  H    5.190188   4.102672   4.732033   2.696360   2.669024
    26  H    4.333189   3.581355   4.504873   3.408784   4.033609
    27  H    5.087379   3.605280   4.970808   3.994099   4.319114
    28  H    4.186282   2.523070   3.599323   2.809076   3.340345
    29  H    3.459708   2.097123   3.696055   3.663764   4.569215
    30  Br   4.186966   4.085458   5.260032   5.370440   6.358244
                   11         12         13         14         15
    11  H    0.000000
    12  H    1.751523   0.000000
    13  H    2.428399   2.450316   0.000000
    14  H    2.501966   3.072541   1.753918   0.000000
    15  H    3.065529   2.525722   1.754479   1.769850   0.000000
    16  C    3.379947   2.666295   3.958016   3.420935   2.724320
    17  C    4.632140   3.986382   5.469642   4.790364   4.180403
    18  H    3.684448   3.153499   3.719642   2.925675   2.216455
    19  H    3.507827   2.260065   3.803438   3.757499   2.629242
    20  H    5.468262   4.657645   5.927965   5.267937   4.425581
    21  H    4.876937   4.603252   5.929370   4.972890   4.720493
    22  H    4.903055   4.122452   5.987043   5.522558   4.856522
    23  C    2.721537   3.410279   4.027761   2.793275   3.486280
    24  C    2.743275   4.060224   4.444916   3.270423   4.454804
    25  H    3.084084   3.668984   3.684403   2.167319   2.951365
    26  H    3.687316   4.174041   5.045668   3.795694   4.290387
    27  H    3.688470   5.017289   5.053457   3.634180   4.997436
    28  H    2.162589   3.772209   3.839560   2.908943   4.262808
    29  H    3.221966   4.464257   5.267939   4.266942   5.293204
    30  Br   5.443180   5.881117   7.298554   6.233314   6.645140
                   16         17         18         19         20
    16  C    0.000000
    17  C    1.515756   0.000000
    18  H    1.086598   2.146611   0.000000
    19  H    1.090339   2.156833   1.759979   0.000000
    20  H    2.114880   1.090189   2.369201   2.525965   0.000000
    21  H    2.189725   1.088701   2.606482   3.079439   1.771308
    22  H    2.175776   1.086839   3.057796   2.454640   1.759924
    23  C    2.439755   3.113279   2.515509   3.352766   3.946477
    24  C    3.849681   4.503158   3.969405   4.640653   5.407212
    25  H    2.565950   3.411055   2.165373   3.459975   4.003371
    26  H    2.607493   2.697463   2.784617   3.641571   3.537516
    27  H    4.536185   5.081423   4.456672   5.423901   5.887459
    28  H    4.242892   5.160625   4.333223   4.850647   6.051366
    29  H    4.262441   4.664183   4.602918   5.030097   5.661336
    30  Br   4.424240   3.749018   4.958737   5.291496   4.608985
                   21         22         23         24         25
    21  H    0.000000
    22  H    1.746947   0.000000
    23  C    2.817842   3.748209   0.000000
    24  C    4.101354   4.976480   1.509828   0.000000
    25  H    3.196203   4.252537   1.087294   2.157257   0.000000
    26  H    2.066801   3.319030   1.089977   2.107766   1.780597
    27  H    4.523307   5.674710   2.100995   1.089688   2.379283
    28  H    4.935324   5.601004   2.196078   1.090158   2.615910
    29  H    4.180383   4.936015   2.146424   1.087105   3.044818
    30  Br   2.883001   3.757244   3.442827   3.690495   4.303363
                   26         27         28         29         30
    26  H    0.000000
    27  H    2.461166   0.000000
    28  H    3.052275   1.759202   0.000000
    29  H    2.346171   1.742168   1.794321   0.000000
    30  Br   2.535555   3.967097   4.685512   3.072476   0.000000
 Symmetry turned off by external request.
 Stoichiometry    C8H20BrN
 Framework group  C1[X(C8H20BrN)]
 Deg. of freedom    84
 Full point group                 C1      NOp   1
 Rotational constants (GHZ):           1.2793245           0.4612170           0.4308522
 General basis read from cards:  (5D, 7F)
 ======================================================================================================
                                       Pseudopotential Parameters
 ======================================================================================================
  Center     Atomic      Valence      Angular      Power
  Number     Number     Electrons     Momentum     of R      Exponent        Coefficient   SO-Coeffient
 ======================================================================================================
    1          7
                                   No pseudopotential on this center.
    2          6
                                   No pseudopotential on this center.
    3          6
                                   No pseudopotential on this center.
    4          1
                                   No pseudopotential on this center.
    5          1
                                   No pseudopotential on this center.
    6          1
                                   No pseudopotential on this center.
    7          1
                                   No pseudopotential on this center.
    8          1
                                   No pseudopotential on this center.
    9          6
                                   No pseudopotential on this center.
   10          6
                                   No pseudopotential on this center.
   11          1
                                   No pseudopotential on this center.
   12          1
                                   No pseudopotential on this center.
   13          1
                                   No pseudopotential on this center.
   14          1
                                   No pseudopotential on this center.
   15          1
                                   No pseudopotential on this center.
   16          6
                                   No pseudopotential on this center.
   17          6
                                   No pseudopotential on this center.
   18          1
                                   No pseudopotential on this center.
   19          1
                                   No pseudopotential on this center.
   20          1
                                   No pseudopotential on this center.
   21          1
                                   No pseudopotential on this center.
   22          1
                                   No pseudopotential on this center.
   23          6
                                   No pseudopotential on this center.
   24          6
                                   No pseudopotential on this center.
   25          1
                                   No pseudopotential on this center.
   26          1
                                   No pseudopotential on this center.
   27          1
                                   No pseudopotential on this center.
   28          1
                                   No pseudopotential on this center.
   29          1
                                   No pseudopotential on this center.
   30         35
                                   No pseudopotential on this center.
 ======================================================================================================
   294 basis functions,   515 primitive gaussians,   305 cartesian basis functions
    55 alpha electrons       55 beta electrons
       nuclear repulsion energy       875.1388558855 Hartrees.
 NAtoms=   30 NActive=   30 NUniq=   30 SFac= 1.00D+00 NAtFMM=   60 NAOKFM=F Big=F
 Integral buffers will be    131072 words long.
 Raffenetti 2 integral format.
 Two-electron integral symmetry is turned off.
 One-electron integrals computed using PRISM.
   1 Symmetry operations used in ECPInt.
 ECPInt:  NShTT=    7021 NPrTT=   29199 LenC2=    6804 LenP2D=   20494.
 LDataN:  DoStor=T MaxTD1= 4 Len=   56
 NBasis=   294 RedAO= T EigKep=  3.44D-05  NBF=   294
 NBsUse=   294 1.00D-06 EigRej= -1.00D+00 NBFU=   294
 ExpMin= 3.50D-02 ExpMax= 5.74D+05 ExpMxC= 5.74D+03 IAcc=3 IRadAn=         5 AccDes= 0.00D+00
 Harris functional with IExCor=  402 and IRadAn=       5 diagonalized for initial guess.
 HarFok:  IExCor=  402 AccDes= 0.00D+00 IRadAn=         5 IDoV= 1 UseB2=F ITyADJ=14
 ICtDFT=  3500011 ScaDFX=  1.000000  1.000000  1.000000  1.000000
 FoFCou: FMM=F IPFlag=           0 FMFlag=      100000 FMFlg1=           0
         NFxFlg=           0 DoJE=T BraDBF=F KetDBF=T FulRan=T
         wScrn=  0.000000 ICntrl=       500 IOpCl=  0 I1Cent=   200000004 NGrid=           0
         NMat0=    1 NMatS0=      1 NMatT0=    0 NMatD0=    1 NMtDS0=    0 NMtDT0=    0
 Symmetry not used in FoFCou.
 Gradient too large for Newton-Raphson -- use scaled steepest descent instead.
     Accept linear search using points  2 and  3.
 Gradient too large for Newton-Raphson -- use scaled steepest descent instead.
     Accept linear search using points  2 and  3.
 Gradient too large for Newton-Raphson -- use scaled steepest descent instead.
 Gradient too large for Newton-Raphson -- use scaled steepest descent instead.
     Accept linear search using points  1 and  2.
 Gradient too large for Newton-Raphson -- use scaled steepest descent instead.
 LinEq1:  Iter=  0 NonCon=     1 RMS=1.64D-05 Max=3.99D-04 NDo=     1
 AX will form     1 AO Fock derivatives at one time.
 LinEq1:  Iter=  1 NonCon=     1 RMS=1.15D-05 Max=1.75D-04 NDo=     1
 LinEq1:  Iter=  2 NonCon=     1 RMS=3.96D-06 Max=4.94D-05 NDo=     1
 LinEq1:  Iter=  3 NonCon=     1 RMS=1.18D-06 Max=1.19D-05 NDo=     1
 LinEq1:  Iter=  4 NonCon=     1 RMS=5.12D-07 Max=8.65D-06 NDo=     1
 LinEq1:  Iter=  5 NonCon=     1 RMS=1.65D-07 Max=2.79D-06 NDo=     1
 LinEq1:  Iter=  6 NonCon=     1 RMS=8.37D-08 Max=1.69D-06 NDo=     1
 LinEq1:  Iter=  7 NonCon=     1 RMS=2.50D-08 Max=4.17D-07 NDo=     1
 LinEq1:  Iter=  8 NonCon=     1 RMS=9.83D-09 Max=2.37D-07 NDo=     1
 LinEq1:  Iter=  9 NonCon=     0 RMS=3.61D-09 Max=8.14D-08 NDo=     1
 Linear equations converged to 1.621D-08 1.621D-07 after     9 iterations.
     Minimum is close to point  2 DX=  1.51D-04 DF=  0.00D+00 DXR=  1.50D-04 DFR=  0.00D+00 which will be used.
 SCF Done:  E(RB3LYP) =  -2943.07147136     a.u. after    7 cycles
            Convg  =    0.9430D-06                    27 Fock formations.
              S**2 =  0.0000                  -V/T =  2.0008
 DoSCS=F DFT=T ScalE2(SS,OS)=  1.000000  1.000000
 Range of M.O.s used for correlation:     1   294
 NBasis=   294 NAE=    55 NBE=    55 NFC=     0 NFV=     0
 NROrb=    294 NOA=    55 NOB=    55 NVA=   239 NVB=   239

 **** Warning!!: The largest alpha MO coefficient is  0.37502084D+02

   1 Symmetry operations used in ECPInt.
 ECPInt:  NShTT=    7021 NPrTT=   29199 LenC2=    6804 LenP2D=   20494.
 LDataN:  DoStor=T MaxTD1= 5 Len=  102
 Number of processors reduced to  43 by ecpmxn.
 Symmetrizing basis deriv contribution to polar:
 IMax=3 JMax=2 DiffMx= 0.00D+00
 G2DrvN: will do    31 centers at a time, making    1 passes.
 Calling FoFCou, ICntrl=  3107 FMM=F I1Cent=   0 AccDes= 0.00D+00.
 End of G2Drv F.D. properties file   721 does not exist.
 End of G2Drv F.D. properties file   722 does not exist.
 End of G2Drv F.D. properties file   788 does not exist.
          IDoAtm=111111111111111111111111111111
          Differentiating once with respect to electric field.
                with respect to dipole field.
          Differentiating once with respect to nuclear coordinates.
 Keep R1 ints in memory in canonical form, NReq=1012960202.
          There are    93 degrees of freedom in the 1st order CPHF.  IDoFFX=6 NUNeed=     3.
     90 vectors produced by pass  0 Test12= 1.41D-14 1.08D-09 XBig12= 1.07D+02 2.11D+00.
 AX will form    90 AO Fock derivatives at one time.
     90 vectors produced by pass  1 Test12= 1.41D-14 1.08D-09 XBig12= 8.97D+00 6.64D-01.
     90 vectors produced by pass  2 Test12= 1.41D-14 1.08D-09 XBig12= 1.09D-01 6.61D-02.
     90 vectors produced by pass  3 Test12= 1.41D-14 1.08D-09 XBig12= 2.97D-04 3.23D-03.
     90 vectors produced by pass  4 Test12= 1.41D-14 1.08D-09 XBig12= 4.02D-07 8.99D-05.
     54 vectors produced by pass  5 Test12= 1.41D-14 1.08D-09 XBig12= 3.73D-10 2.30D-06.
      3 vectors produced by pass  6 Test12= 1.41D-14 1.08D-09 XBig12= 3.02D-13 6.29D-08.
      3 vectors produced by pass  7 Test12= 1.41D-14 1.08D-09 XBig12= 2.28D-16 1.78D-09.
 InvSVY:  IOpt=1 It=  1 EMax= 5.33D-15
 Solved reduced A of dimension   510 with    93 vectors.
 Isotropic polarizability for W=    0.000000      133.55 Bohr**3.
 End of Minotr F.D. properties file   721 does not exist.
 End of Minotr F.D. properties file   722 does not exist.
 End of Minotr F.D. properties file   788 does not exist.

 **********************************************************************

            Population analysis using the SCF Density.

 **********************************************************************

 Alpha  occ. eigenvalues -- -482.52944 -61.61416 -56.18148 -56.18127 -56.18120
 Alpha  occ. eigenvalues --  -14.47872 -10.27593 -10.26851 -10.24421 -10.24370
 Alpha  occ. eigenvalues --  -10.22990 -10.20342 -10.19525 -10.19445  -8.38407
 Alpha  occ. eigenvalues --   -6.39214  -6.39207  -6.39178  -2.51326  -2.51326
 Alpha  occ. eigenvalues --   -2.51302  -2.51296  -2.51290  -1.04034  -0.83001
 Alpha  occ. eigenvalues --   -0.81363  -0.80723  -0.76408  -0.69819  -0.68074
 Alpha  occ. eigenvalues --   -0.67023  -0.60677  -0.59725  -0.55171  -0.54910
 Alpha  occ. eigenvalues --   -0.52823  -0.50948  -0.49045  -0.46796  -0.45768
 Alpha  occ. eigenvalues --   -0.44543  -0.43120  -0.42467  -0.41843  -0.41506
 Alpha  occ. eigenvalues --   -0.41110  -0.40425  -0.39496  -0.38767  -0.37885
 Alpha  occ. eigenvalues --   -0.37003  -0.36448  -0.17865  -0.17745  -0.17637
 Alpha virt. eigenvalues --   -0.03175  -0.01498  -0.01365   0.00451   0.01518
 Alpha virt. eigenvalues --    0.01998   0.02646   0.02861   0.03962   0.04508
 Alpha virt. eigenvalues --    0.05321   0.05556   0.06073   0.06639   0.06924
 Alpha virt. eigenvalues --    0.07246   0.07753   0.09017   0.09401   0.10108
 Alpha virt. eigenvalues --    0.10285   0.10686   0.11121   0.11344   0.11487
 Alpha virt. eigenvalues --    0.12427   0.12740   0.12922   0.13631   0.14142
 Alpha virt. eigenvalues --    0.14508   0.14909   0.15348   0.15674   0.16581
 Alpha virt. eigenvalues --    0.17138   0.17435   0.18509   0.18706   0.19388
 Alpha virt. eigenvalues --    0.19867   0.20169   0.20615   0.20654   0.21262
 Alpha virt. eigenvalues --    0.22508   0.23089   0.23337   0.24398   0.24772
 Alpha virt. eigenvalues --    0.25283   0.25741   0.26256   0.26912   0.27252
 Alpha virt. eigenvalues --    0.28862   0.29104   0.29526   0.30669   0.32075
 Alpha virt. eigenvalues --    0.33627   0.34664   0.36806   0.37315   0.40801
 Alpha virt. eigenvalues --    0.42299   0.44105   0.53301   0.55845   0.56702
 Alpha virt. eigenvalues --    0.59000   0.59600   0.60309   0.60917   0.62098
 Alpha virt. eigenvalues --    0.62574   0.62965   0.63732   0.65513   0.66037
 Alpha virt. eigenvalues --    0.67114   0.67990   0.68446   0.68652   0.70378
 Alpha virt. eigenvalues --    0.70468   0.71120   0.73682   0.74928   0.77293
 Alpha virt. eigenvalues --    0.78023   0.78853   0.79788   0.80118   0.85409
 Alpha virt. eigenvalues --    0.88343   0.88500   0.90669   0.91242   0.91640
 Alpha virt. eigenvalues --    0.92327   0.93522   0.94784   0.95606   0.95683
 Alpha virt. eigenvalues --    0.97030   0.97543   0.98971   0.99305   1.00107
 Alpha virt. eigenvalues --    1.01490   1.02936   1.04374   1.06021   1.07955
 Alpha virt. eigenvalues --    1.08956   1.10014   1.11484   1.13041   1.15517
 Alpha virt. eigenvalues --    1.16979   1.17993   1.20014   1.21897   1.22265
 Alpha virt. eigenvalues --    1.23659   1.30443   1.33065   1.36836   1.38659
 Alpha virt. eigenvalues --    1.41128   1.41641   1.47241   1.51711   1.53290
 Alpha virt. eigenvalues --    1.55640   1.56998   1.58904   1.62002   1.62240
 Alpha virt. eigenvalues --    1.66015   1.68276   1.75502   1.81074   1.81562
 Alpha virt. eigenvalues --    1.83346   1.84100   1.85207   1.89849   1.92010
 Alpha virt. eigenvalues --    1.93127   1.95929   1.97482   1.98325   1.99115
 Alpha virt. eigenvalues --    2.01134   2.01968   2.03483   2.03931   2.04791
 Alpha virt. eigenvalues --    2.06668   2.07104   2.09245   2.09818   2.11066
 Alpha virt. eigenvalues --    2.11486   2.12492   2.13023   2.13768   2.14280
 Alpha virt. eigenvalues --    2.15110   2.16697   2.17277   2.19720   2.21852
 Alpha virt. eigenvalues --    2.25079   2.25838   2.26155   2.28673   2.31075
 Alpha virt. eigenvalues --    2.33716   2.35834   2.39745   2.42345   2.43432
 Alpha virt. eigenvalues --    2.43739   2.47453   2.49029   2.51655   2.52304
 Alpha virt. eigenvalues --    2.55104   2.61134   2.62474   2.65239   2.67342
 Alpha virt. eigenvalues --    2.67710   2.71036   2.71492   2.72708   2.73506
 Alpha virt. eigenvalues --    2.75633   2.77176   2.79158   2.80476   2.80763
 Alpha virt. eigenvalues --    2.83158   2.83896   2.84818   2.86440   2.87648
 Alpha virt. eigenvalues --    2.88614   2.90818   2.92453   2.93241   2.94333
 Alpha virt. eigenvalues --    2.95329   2.97654   2.98824   3.24263   3.27073
 Alpha virt. eigenvalues --    3.27569   3.28988   3.32078   3.33115   3.35172
 Alpha virt. eigenvalues --    3.37536   3.40636   3.42222   3.43256   3.44443
 Alpha virt. eigenvalues --    3.45904   3.48811   3.50160   3.51884   3.52706
 Alpha virt. eigenvalues --    3.54418   3.55859   3.57591   8.75270
          Condensed to atoms (all electrons):
               1          2          3          4          5          6
     1  N    7.575631  -0.168211   0.230621  -0.010995  -0.016604   0.005534
     2  C   -0.168211   7.696772  -1.382530   0.362344   0.334401  -0.093660
     3  C    0.230621  -1.382530   6.472446  -0.009133  -0.004285   0.461609
     4  H   -0.010995   0.362344  -0.009133   0.429696  -0.020322  -0.003811
     5  H   -0.016604   0.334401  -0.004285  -0.020322   0.558936  -0.002548
     6  H    0.005534  -0.093660   0.461609  -0.003811  -0.002548   0.504101
     7  H    0.027632  -0.194785   0.524975  -0.003353   0.004439  -0.017994
     8  H   -0.031056  -0.051914   0.412739   0.003496  -0.006031  -0.025226
     9  C    0.117116  -0.175495   0.082762   0.029539  -0.032238  -0.007956
    10  C    0.029012   0.053546  -0.020357   0.000442   0.006407  -0.002632
    11  H   -0.027092  -0.034874   0.008328   0.000122   0.000127   0.000288
    12  H   -0.022189  -0.022257  -0.004957   0.000177   0.001522   0.000054
    13  H   -0.001848  -0.007366   0.002239   0.000002  -0.000003  -0.000000
    14  H    0.003334  -0.000617  -0.001784   0.000005   0.000001   0.000000
    15  H   -0.005507  -0.003597   0.000098   0.000001   0.000008   0.000000
    16  C   -0.257225   0.035066  -0.194968  -0.050407   0.014203  -0.005647
    17  C    0.133287  -0.037796   0.038236   0.009300  -0.032983   0.000805
    18  H   -0.045713   0.028059   0.003768  -0.000090   0.000586   0.000002
    19  H   -0.004194  -0.027784  -0.001950   0.000197  -0.000180  -0.000005
    20  H    0.003551  -0.001250   0.000172   0.000269   0.000114  -0.000000
    21  H    0.036961  -0.018952   0.001456  -0.000675   0.000193   0.000001
    22  H   -0.033486   0.025325  -0.000370  -0.002991   0.001683   0.000008
    23  C    0.162447  -0.762049   0.276639  -0.044584   0.033197   0.005120
    24  C    0.046615   0.332842  -0.237158  -0.001400  -0.000320  -0.000736
    25  H   -0.010764   0.042467  -0.000173   0.000455  -0.000193   0.000004
    26  H    0.008229  -0.065667   0.007019   0.001023   0.000168   0.000002
    27  H    0.002041   0.002498   0.001819  -0.000008   0.000003  -0.000002
    28  H    0.004729  -0.017725   0.004324   0.000189  -0.000002   0.000041
    29  H   -0.001390   0.053106  -0.036489   0.000478  -0.000001   0.000286
    30  Br   0.011503   0.032533  -0.035486   0.066294   0.002165   0.000686
               7          8          9         10         11         12
     1  N    0.027632  -0.031056   0.117116   0.029012  -0.027092  -0.022189
     2  C   -0.194785  -0.051914  -0.175495   0.053546  -0.034874  -0.022257
     3  C    0.524975   0.412739   0.082762  -0.020357   0.008328  -0.004957
     4  H   -0.003353   0.003496   0.029539   0.000442   0.000122   0.000177
     5  H    0.004439  -0.006031  -0.032238   0.006407   0.000127   0.001522
     6  H   -0.017994  -0.025226  -0.007956  -0.002632   0.000288   0.000054
     7  H    0.522081  -0.032468  -0.010359   0.004105  -0.000800   0.000271
     8  H   -0.032468   0.568799   0.028932   0.002235  -0.002116  -0.000151
     9  C   -0.010359   0.028932   6.407235  -0.448084   0.372195   0.367881
    10  C    0.004105   0.002235  -0.448084   5.719731   0.001004  -0.007398
    11  H   -0.000800  -0.002116   0.372195   0.001004   0.529370  -0.028982
    12  H    0.000271  -0.000151   0.367881  -0.007398  -0.028982   0.540478
    13  H    0.000001   0.000015  -0.056141   0.422537  -0.003060  -0.002749
    14  H    0.000008   0.000002  -0.125100   0.480145  -0.005023   0.004328
    15  H   -0.000001  -0.000007  -0.100555   0.456727   0.004487  -0.004111
    16  C    0.005353  -0.008542  -0.310902  -0.007569   0.012245  -0.030395
    17  C   -0.002828   0.000495   0.101442  -0.046370  -0.000585   0.003537
    18  H    0.000006  -0.000004  -0.051598   0.016661  -0.000115   0.000289
    19  H   -0.000004   0.000018   0.004698  -0.024058   0.000383   0.002432
    20  H    0.000000   0.000000  -0.003157   0.000768   0.000002  -0.000014
    21  H    0.000006  -0.000002   0.008397  -0.003392   0.000006   0.000001
    22  H    0.000000  -0.000006  -0.013109   0.002001  -0.000002   0.000019
    23  C   -0.002628  -0.002206  -0.081336  -0.156539  -0.016379   0.023772
    24  C    0.006869   0.000450  -0.152076   0.082327   0.003009   0.002844
    25  H   -0.000035   0.000013  -0.067990   0.039823  -0.000157   0.000049
    26  H    0.000061  -0.000008   0.028680   0.001427   0.000124  -0.000079
    27  H    0.000217  -0.000006   0.010559  -0.001278   0.000093   0.000001
    28  H   -0.001174   0.000040  -0.002434  -0.000374   0.001191   0.000084
    29  H    0.001441   0.000150  -0.009675   0.007429   0.000019  -0.000001
    30  Br  -0.000195  -0.000889  -0.004711   0.003214  -0.000309   0.000224
              13         14         15         16         17         18
     1  N   -0.001848   0.003334  -0.005507  -0.257225   0.133287  -0.045713
     2  C   -0.007366  -0.000617  -0.003597   0.035066  -0.037796   0.028059
     3  C    0.002239  -0.001784   0.000098  -0.194968   0.038236   0.003768
     4  H    0.000002   0.000005   0.000001  -0.050407   0.009300  -0.000090
     5  H   -0.000003   0.000001   0.000008   0.014203  -0.032983   0.000586
     6  H   -0.000000   0.000000   0.000000  -0.005647   0.000805   0.000002
     7  H    0.000001   0.000008  -0.000001   0.005353  -0.002828   0.000006
     8  H    0.000015   0.000002  -0.000007  -0.008542   0.000495  -0.000004
     9  C   -0.056141  -0.125100  -0.100555  -0.310902   0.101442  -0.051598
    10  C    0.422537   0.480145   0.456727  -0.007569  -0.046370   0.016661
    11  H   -0.003060  -0.005023   0.004487   0.012245  -0.000585  -0.000115
    12  H   -0.002749   0.004328  -0.004111  -0.030395   0.003537   0.000289
    13  H    0.523013  -0.022844  -0.023423  -0.001435  -0.001243   0.000192
    14  H   -0.022844   0.522553  -0.027579  -0.007483   0.001639  -0.000006
    15  H   -0.023423  -0.027579   0.530170   0.014927   0.002052  -0.002281
    16  C   -0.001435  -0.007483   0.014927   6.988638  -0.607962   0.400325
    17  C   -0.001243   0.001639   0.002052  -0.607962   5.766880  -0.021516
    18  H    0.000192  -0.000006  -0.002281   0.400325  -0.021516   0.560151
    19  H    0.000022   0.000200   0.000186   0.327010   0.023575  -0.034579
    20  H   -0.000000  -0.000000   0.000014  -0.069964   0.405498  -0.004779
    21  H    0.000000   0.000002   0.000005  -0.184491   0.517489  -0.002280
    22  H    0.000000   0.000000  -0.000006  -0.021722   0.404103   0.004559
    23  C    0.003401   0.002887  -0.007002  -0.057848  -0.047988  -0.025465
    24  C    0.002025   0.004095   0.000599   0.024944  -0.020933   0.003232
    25  H    0.000162  -0.000853  -0.000364  -0.042312  -0.006059   0.004067
    26  H   -0.000001   0.000080   0.000006  -0.031003  -0.006545  -0.000792
    27  H   -0.000001   0.000019   0.000003  -0.010695   0.002104  -0.000015
    28  H   -0.000021   0.000388   0.000002   0.005437  -0.003196  -0.000020
    29  H    0.000001  -0.000003  -0.000001  -0.004350   0.000102   0.000004
    30  Br  -0.000004   0.000006  -0.000019  -0.099696   0.020141   0.000062
              19         20         21         22         23         24
     1  N   -0.004194   0.003551   0.036961  -0.033486   0.162447   0.046615
     2  C   -0.027784  -0.001250  -0.018952   0.025325  -0.762049   0.332842
     3  C   -0.001950   0.000172   0.001456  -0.000370   0.276639  -0.237158
     4  H    0.000197   0.000269  -0.000675  -0.002991  -0.044584  -0.001400
     5  H   -0.000180   0.000114   0.000193   0.001683   0.033197  -0.000320
     6  H   -0.000005  -0.000000   0.000001   0.000008   0.005120  -0.000736
     7  H   -0.000004   0.000000   0.000006   0.000000  -0.002628   0.006869
     8  H    0.000018   0.000000  -0.000002  -0.000006  -0.002206   0.000450
     9  C    0.004698  -0.003157   0.008397  -0.013109  -0.081336  -0.152076
    10  C   -0.024058   0.000768  -0.003392   0.002001  -0.156539   0.082327
    11  H    0.000383   0.000002   0.000006  -0.000002  -0.016379   0.003009
    12  H    0.002432  -0.000014   0.000001   0.000019   0.023772   0.002844
    13  H    0.000022  -0.000000   0.000000   0.000000   0.003401   0.002025
    14  H    0.000200  -0.000000   0.000002   0.000000   0.002887   0.004095
    15  H    0.000186   0.000014   0.000005  -0.000006  -0.007002   0.000599
    16  C    0.327010  -0.069964  -0.184491  -0.021722  -0.057848   0.024944
    17  C    0.023575   0.405498   0.517489   0.404103  -0.047988  -0.020933
    18  H   -0.034579  -0.004779  -0.002280   0.004559  -0.025465   0.003232
    19  H    0.549477  -0.001358   0.003526  -0.006041   0.016207   0.001189
    20  H   -0.001358   0.552016  -0.019000  -0.027119   0.015307  -0.000855
    21  H    0.003526  -0.019000   0.442846  -0.021302  -0.013104   0.001800
    22  H   -0.006041  -0.027119  -0.021302   0.526811  -0.004740   0.001790
    23  C    0.016207   0.015307  -0.013104  -0.004740   6.691055  -0.484257
    24  C    0.001189  -0.000855   0.001800   0.001790  -0.484257   5.691415
    25  H    0.000270   0.000032   0.000135   0.000004   0.317156   0.010166
    26  H    0.000049  -0.000005   0.003749  -0.000014   0.375759  -0.029619
    27  H    0.000003  -0.000000   0.000012  -0.000000  -0.063292   0.415017
    28  H   -0.000001   0.000000  -0.000003   0.000001  -0.104974   0.450118
    29  H    0.000006  -0.000000   0.000023  -0.000002  -0.135325   0.486283
    30  Br   0.000192   0.001650   0.021563  -0.004914   0.005337  -0.051475
              25         26         27         28         29         30
     1  N   -0.010764   0.008229   0.002041   0.004729  -0.001390   0.011503
     2  C    0.042467  -0.065667   0.002498  -0.017725   0.053106   0.032533
     3  C   -0.000173   0.007019   0.001819   0.004324  -0.036489  -0.035486
     4  H    0.000455   0.001023  -0.000008   0.000189   0.000478   0.066294
     5  H   -0.000193   0.000168   0.000003  -0.000002  -0.000001   0.002165
     6  H    0.000004   0.000002  -0.000002   0.000041   0.000286   0.000686
     7  H   -0.000035   0.000061   0.000217  -0.001174   0.001441  -0.000195
     8  H    0.000013  -0.000008  -0.000006   0.000040   0.000150  -0.000889
     9  C   -0.067990   0.028680   0.010559  -0.002434  -0.009675  -0.004711
    10  C    0.039823   0.001427  -0.001278  -0.000374   0.007429   0.003214
    11  H   -0.000157   0.000124   0.000093   0.001191   0.000019  -0.000309
    12  H    0.000049  -0.000079   0.000001   0.000084  -0.000001   0.000224
    13  H    0.000162  -0.000001  -0.000001  -0.000021   0.000001  -0.000004
    14  H   -0.000853   0.000080   0.000019   0.000388  -0.000003   0.000006
    15  H   -0.000364   0.000006   0.000003   0.000002  -0.000001  -0.000019
    16  C   -0.042312  -0.031003  -0.010695   0.005437  -0.004350  -0.099696
    17  C   -0.006059  -0.006545   0.002104  -0.003196   0.000102   0.020141
    18  H    0.004067  -0.000792  -0.000015  -0.000020   0.000004   0.000062
    19  H    0.000270   0.000049   0.000003  -0.000001   0.000006   0.000192
    20  H    0.000032  -0.000005  -0.000000   0.000000  -0.000000   0.001650
    21  H    0.000135   0.003749   0.000012  -0.000003   0.000023   0.021563
    22  H    0.000004  -0.000014  -0.000000   0.000001  -0.000002  -0.004914
    23  C    0.317156   0.375759  -0.063292  -0.104974  -0.135325   0.005337
    24  C    0.010166  -0.029619   0.415017   0.450118   0.486283  -0.051475
    25  H    0.592034  -0.022038  -0.004947  -0.003177   0.004721   0.002838
    26  H   -0.022038   0.451179  -0.001857   0.004500  -0.005836   0.056533
    27  H   -0.004947  -0.001857   0.525134  -0.027095  -0.016611  -0.000686
    28  H   -0.003177   0.004500  -0.027095   0.585466  -0.028234   0.001997
    29  H    0.004721  -0.005836  -0.016611  -0.028234   0.466942   0.003982
    30  Br   0.002838   0.056533  -0.000686   0.001997   0.003982  35.750213
 Mulliken charges:
               1
     1  N   -0.761968
     2  C    0.067571
     3  C   -0.599606
     4  H    0.243739
     5  H    0.157559
     6  H    0.181676
     7  H    0.169157
     8  H    0.143248
     9  C    0.093481
    10  C   -0.611491
    11  H    0.186500
    12  H    0.175319
    13  H    0.166530
    14  H    0.171601
    15  H    0.165168
    16  C    0.176467
    17  C   -0.594680
    18  H    0.167291
    19  H    0.170515
    20  H    0.148109
    21  H    0.225031
    22  H    0.169519
    23  C    0.081434
    24  C   -0.588800
    25  H    0.144665
    26  H    0.224877
    27  H    0.166971
    28  H    0.129924
    29  H    0.212945
    30  Br  -0.782752
 Sum of Mulliken charges =   0.00000
 Mulliken charges with hydrogens summed into heavy atoms:
               1
     1  N   -0.761968
     2  C    0.468869
     3  C   -0.105525
     9  C    0.455300
    10  C   -0.108192
    16  C    0.514273
    17  C   -0.052022
    23  C    0.450977
    24  C   -0.078960
    30  Br  -0.782752
 APT charges:
               1
     1  N   -0.435434
     2  C    0.156823
     3  C    0.008946
     4  H    0.187514
     5  H   -0.028457
     6  H    0.030624
     7  H    0.028067
     8  H   -0.019638
     9  C    0.255640
    10  C    0.008340
    11  H    0.008329
    12  H   -0.012710
    13  H    0.011451
    14  H    0.017358
    15  H    0.009477
    16  C    0.287828
    17  C   -0.029445
    18  H   -0.010068
    19  H   -0.023561
    20  H   -0.007866
    21  H    0.099798
    22  H    0.018687
    23  C    0.164786
    24  C   -0.015619
    25  H   -0.031607
    26  H    0.161743
    27  H    0.021490
    28  H   -0.020129
    29  H    0.066514
    30  Br  -0.908879
 Sum of APT charges =   0.00000
 APT charges with hydrogens summed into heavy atoms:
               1
     1  N   -0.435434
     2  C    0.315879
     3  C    0.047999
     9  C    0.251258
    10  C    0.046626
    16  C    0.254199
    17  C    0.081174
    23  C    0.294922
    24  C    0.052255
    30  Br  -0.908879
 Electronic spatial extent (au):  <R**2>=           4261.0715
 Charge=              0.0000 electrons
 Dipole moment (field-independent basis, Debye):
    X=             -2.9573    Y=            -13.3151    Z=             -2.9489  Tot=             13.9547
 Quadrupole moment (field-independent basis, Debye-Ang):
   XX=            -78.1562   YY=           -145.4927   ZZ=            -79.1448
   XY=            -12.1413   XZ=             -2.1428   YZ=            -14.4562
 Traceless Quadrupole moment (field-independent basis, Debye-Ang):
   XX=             22.7750   YY=            -44.5615   ZZ=             21.7864
   XY=            -12.1413   XZ=             -2.1428   YZ=            -14.4562
 Octapole moment (field-independent basis, Debye-Ang**2):
  XXX=             -8.6620  YYY=           -725.4089  ZZZ=            -61.6492  XYY=            -56.4518
  XXY=           -143.0277  XXZ=            -17.6976  XZZ=             -3.1619  YZZ=           -148.4249
  YYZ=            -89.7858  XYZ=            -13.5319
 Hexadecapole moment (field-independent basis, Debye-Ang**3):
 XXXX=           -746.3359 YYYY=          -4774.5929 ZZZZ=           -827.9664 XXXY=           -142.7842
 XXXZ=            -97.0740 YYYX=           -350.1943 YYYZ=           -592.5290 ZZZX=           -102.6864
 ZZZY=           -310.9171 XXYY=           -714.8071 XXZZ=           -255.3392 YYZZ=           -755.1490
 XXYZ=            -97.8691 YYXZ=            -81.7287 ZZXY=            -50.2085
 N-N= 8.751388558855D+02 E-N=-8.760665860663D+03  KE= 2.940584768151D+03
  Exact polarizability: 124.747   4.024 149.520   4.577   7.816 126.387
 Approx polarizability: 175.896   3.101 190.602   0.353   3.295 176.316
   1 Symmetry operations used in ECPInt.
 ECPInt:  NShTT=    7021 NPrTT=   29199 LenC2=    6804 LenP2D=   20494.
 LDataN:  DoStor=T MaxTD1= 6 Len=  172
 Calling FoFJK, ICntrl=    100127 FMM=F ISym2X=0 I1Cent= 0 IOpClX= 0 NMat=1 NMatS=1 NMatT=0.
 -------------------------------------------------------------------
 Center     Atomic                   Forces (Hartrees/Bohr)
 Number     Number              X              Y              Z
 -------------------------------------------------------------------
      1        7           0.000026024    0.000148594    0.000210592
      2        6          -0.001282104    0.002045352    0.003759716
      3        6          -0.002757393    0.000114853   -0.000613391
      4        1           0.001416568    0.002731900    0.000555636
      5        1          -0.000268786   -0.001447869    0.002655181
      6        1          -0.001548207    0.001900288    0.002045479
      7        1          -0.000761068    0.001820797   -0.002493303
      8        1          -0.002409393   -0.002262530   -0.000174609
      9        6          -0.003711501   -0.002825799   -0.001080280
     10        6           0.001258527   -0.001936469   -0.001621064
     11        1          -0.002300382    0.001113378   -0.001566834
     12        1          -0.001426123   -0.001696424    0.002113534
     13        1          -0.001818240   -0.002307062   -0.001309285
     14        1           0.001466255    0.000733234   -0.002774312
     15        1           0.002305128   -0.002100561    0.001053617
     16        6           0.002853337   -0.003495319    0.001748957
     17        6           0.001583365    0.001273370    0.001992385
     18        1           0.002095165   -0.001371697   -0.001814358
     19        1          -0.001127125   -0.002470803    0.001538581
     20        1           0.002646367   -0.001354481    0.001272156
     21        1           0.001214156    0.002754759   -0.000528735
     22        1          -0.001410888    0.000612961    0.002794206
     23        6           0.003754369    0.001710255   -0.002484158
     24        6          -0.001940584    0.001201467   -0.002196783
     25        1           0.002057071   -0.001824317   -0.001364887
     26        1           0.001105376    0.002403149    0.001551470
     27        1           0.001760325    0.001338533   -0.002289521
     28        1          -0.002170983   -0.001314118   -0.002139606
     29        1          -0.001487463    0.002488823    0.000386045
     30       35           0.000878204    0.002015736    0.000773570
 -------------------------------------------------------------------
 Cartesian Forces:  Max     0.003759716 RMS     0.001906366

 GradGradGradGradGradGradGradGradGradGradGradGradGradGradGradGradGradGrad
 Berny optimization.
 Search for a local minimum.
 Step number   1 out of a maximum of  100
 All quantities printed in internal units (Hartrees-Bohrs-Radians)
 Second derivative matrix not updated -- analytic derivatives used.
 ITU=  0
     Eigenvalues ---   -0.00070  -0.00047  -0.00025   0.00008   0.00095
     Eigenvalues ---    0.00162   0.00198   0.00225   0.00354   0.00424
     Eigenvalues ---    0.00569   0.00634   0.00874   0.01095   0.01311
     Eigenvalues ---    0.01494   0.01801   0.02142   0.02689   0.03051
     Eigenvalues ---    0.03377   0.03400   0.03620   0.03707   0.04555
     Eigenvalues ---    0.05354   0.05595   0.05654   0.06177   0.06592
     Eigenvalues ---    0.06822   0.07124   0.07303   0.07599   0.07781
     Eigenvalues ---    0.07870   0.08003   0.09670   0.09710   0.09892
     Eigenvalues ---    0.10158   0.10924   0.11235   0.11318   0.11392
     Eigenvalues ---    0.13834   0.14016   0.14026   0.14193   0.14703
     Eigenvalues ---    0.15438   0.16199   0.16605   0.20320   0.20399
     Eigenvalues ---    0.20793   0.22796   0.32862   0.33883   0.36081
     Eigenvalues ---    0.44216   0.51542   0.54167   0.55283   0.63366
     Eigenvalues ---    0.63608   0.65000   0.67267   0.75525   0.77674
     Eigenvalues ---    0.78215   0.80107   0.80538   0.81495   0.82537
     Eigenvalues ---    0.84334   0.86744   0.88124   0.89702   0.91685
     Eigenvalues ---    0.93462   0.95598   0.96534   0.97122
 RFO step:  Lambda=-2.93617066D-03 EMin=-7.01783265D-04
 Linear search not attempted -- first point.
 Maximum step size (   0.300) exceeded in Quadratic search.
    -- Step size scaled by   0.303
 B after Tr=     0.000390    0.000308    0.001014
         Rot=    0.999999    0.000207    0.000014    0.000996 Ang=   0.12 deg.
 Variable       Old X    -DE/DX   Delta X   Delta X   Delta X     New X
                                 (Linear)    (Quad)   (Total)
    X1       -0.26816   0.00003   0.00000  -0.00146   0.00118  -0.26698
    Y1        1.13274   0.00015   0.00000  -0.00350  -0.00255   1.13018
    Z1        0.25151   0.00021   0.00000  -0.00106  -0.00052   0.25099
    X2       -2.01775  -0.00128   0.00000  -0.00684  -0.00129  -2.01904
    Y2        2.61719   0.00205   0.00000   0.00095   0.00611   2.62330
    Z2        1.99461   0.00376   0.00000   0.00507   0.00494   1.99955
    X3       -4.66445  -0.00276   0.00000  -0.00903  -0.00235  -4.66680
    Y3        3.15649   0.00011   0.00000   0.01353   0.02358   3.18006
    Z3        1.05110  -0.00061   0.00000   0.00052   0.00009   1.05119
    X4       -1.03615   0.00142   0.00000   0.00038   0.00945  -1.02670
    Y4        4.39361   0.00273   0.00000  -0.00117   0.00219   4.39580
    Z4        2.39363   0.00056   0.00000   0.00990   0.00907   2.40270
    X5       -2.13488  -0.00027   0.00000  -0.01186  -0.00860  -2.14348
    Y5        1.49723  -0.00145   0.00000  -0.00660  -0.00048   1.49675
    Z5        3.71767   0.00266   0.00000   0.00260   0.00293   3.72061
    X6       -5.52607  -0.00155   0.00000  -0.01423  -0.00515  -5.53121
    Y6        4.40139   0.00190   0.00000  -0.00504   0.00731   4.40869
    Z6        2.44707   0.00205   0.00000   0.01783   0.01687   2.46394
    X7       -4.69817  -0.00076   0.00000  -0.00241   0.00638  -4.69179
    Y7        4.15996   0.00182   0.00000   0.04219   0.05155   4.21151
    Z7       -0.73583  -0.00249   0.00000   0.01347   0.01261  -0.72321
    X8       -5.84410  -0.00241   0.00000  -0.01175  -0.00840  -5.85250
    Y8        1.47552  -0.00226   0.00000   0.01469   0.02702   1.50254
    Z8        0.90621  -0.00017   0.00000  -0.02742  -0.02719   0.87902
    X9       -1.73092  -0.00371   0.00000  -0.00172  -0.00325  -1.73417
    Y9       -0.96251  -0.00283   0.00000  -0.01705  -0.01370  -0.97620
    Z9       -0.98380  -0.00108   0.00000   0.00251   0.00388  -0.97993
   X10       -0.22736   0.00126   0.00000   0.00049  -0.00455  -0.23192
   Y10       -2.75568  -0.00194   0.00000  -0.00922  -0.00955  -2.76523
   Z10       -2.63173  -0.00162   0.00000  -0.01483  -0.01268  -2.64441
   X11       -3.20621  -0.00230   0.00000  -0.01680  -0.01654  -3.22275
   Y11       -0.07780   0.00111   0.00000  -0.02288  -0.01701  -0.09481
   Z11       -2.09723  -0.00157   0.00000   0.01307   0.01404  -2.08320
   X12       -2.64921  -0.00143   0.00000   0.01606   0.01243  -2.63678
   Y12       -1.98848  -0.00170   0.00000  -0.02487  -0.01909  -2.00756
   Z12        0.54748   0.00211   0.00000   0.01119   0.01296   0.56045
   X13       -1.53648  -0.00182   0.00000   0.00825   0.00038  -1.53610
   Y13       -4.15122  -0.00231   0.00000  -0.04417  -0.04221  -4.19342
   Z13       -3.39273  -0.00131   0.00000   0.02870   0.03141  -3.36132
   X14        0.64570   0.00147   0.00000  -0.05257  -0.05567   0.59004
   Y14       -1.80111   0.00073   0.00000  -0.00832  -0.01096  -1.81207
   Z14       -4.22966  -0.00277   0.00000  -0.04664  -0.04487  -4.27453
   X15        1.22330   0.00231   0.00000   0.04541   0.03838   1.26168
   Y15       -3.77712  -0.00210   0.00000   0.02743   0.02455  -3.75257
   Z15       -1.59382   0.00105   0.00000  -0.03628  -0.03368  -1.62750
   X16        1.79333   0.00285   0.00000   0.01379   0.01409   1.80743
   Y16       -0.01807  -0.00350   0.00000   0.00196  -0.00056  -0.01863
   Z16        1.87732   0.00175   0.00000   0.00242   0.00349   1.88081
   X17        3.05550   0.00158   0.00000  -0.02201  -0.01823   3.03727
   Y17        1.75664   0.00127   0.00000   0.00293  -0.00125   1.75540
   Z17        3.73794   0.00199   0.00000   0.03662   0.03699   3.77493
   X18        3.18569   0.00210   0.00000   0.03136   0.03026   3.21595
   Y18       -0.77773  -0.00137   0.00000   0.03992   0.03406  -0.74368
   Z18        0.57325  -0.00181   0.00000  -0.00451  -0.00310   0.57015
   X19        0.91869  -0.00113   0.00000   0.03067   0.02774   0.94643
   Y19       -1.60204  -0.00247   0.00000  -0.02635  -0.02675  -1.62879
   Z19        2.86294   0.00154   0.00000  -0.02316  -0.02145   2.84149
   X20        4.72029   0.00265   0.00000   0.04720   0.04915   4.76944
   Y20        0.79258  -0.00135   0.00000   0.06080   0.05345   0.84603
   Z20        4.47504   0.00127   0.00000  -0.03732  -0.03652   4.43852
   X21        3.64156   0.00121   0.00000  -0.13223  -0.12474   3.51682
   Y21        3.54082   0.00275   0.00000   0.06718   0.06173   3.60255
   Z21        2.89774  -0.00053   0.00000   0.08574   0.08536   2.98309
   X22        1.83911  -0.00141   0.00000  -0.00913  -0.00472   1.83439
   Y22        2.21867   0.00061   0.00000  -0.11845  -0.11955   2.09911
   Z22        5.32700   0.00279   0.00000   0.08575   0.08595   5.41295
   X23        1.03112   0.00375   0.00000  -0.00284   0.00319   1.03431
   Y23        2.80756   0.00171   0.00000   0.00004  -0.00241   2.80515
   Z23       -1.68517  -0.00248   0.00000  -0.01320  -0.01332  -1.69848
   X24       -0.64916  -0.00194   0.00000  -0.00812   0.00072  -0.64844
   Y24        4.20045   0.00120   0.00000  -0.00530  -0.00516   4.19529
   Z24       -3.52284  -0.00220   0.00000  -0.02236  -0.02310  -3.54595
   X25        2.35253   0.00206   0.00000  -0.00227   0.00132   2.35384
   Y25        1.57815  -0.00182   0.00000  -0.00552  -0.01100   1.56715
   Z25       -2.66709  -0.00136   0.00000  -0.01053  -0.01010  -2.67719
   X26        2.06813   0.00111   0.00000  -0.00327   0.00556   2.07368
   Y26        4.22624   0.00240   0.00000   0.00506   0.00099   4.22723
   Z26       -0.61066   0.00155   0.00000  -0.01359  -0.01427  -0.62493
   X27        0.58738   0.00176   0.00000  -0.00708   0.00341   0.59079
   Y27        5.02879   0.00134   0.00000  -0.02546  -0.02838   5.00041
   Z27       -4.94592  -0.00229   0.00000  -0.03713  -0.03817  -4.98409
   X28       -2.01116  -0.00217   0.00000  -0.02096  -0.01448  -2.02564
   Y28        3.00364  -0.00131   0.00000  -0.00716  -0.00468   2.99896
   Z28       -4.50092  -0.00214   0.00000  -0.00751  -0.00779  -4.50870
   X29       -1.58707  -0.00149   0.00000   0.00236   0.01433  -1.57274
   Y29        5.77104   0.00249   0.00000   0.01071   0.01308   5.78412
   Z29       -2.58806   0.00039   0.00000  -0.03338  -0.03481  -2.62287
   X30        1.30768   0.00088   0.00000   0.03306   0.05000   1.35769
   Y30        8.32741   0.00202   0.00000   0.01134   0.00969   8.33709
   Z30        1.74745   0.00077   0.00000   0.00338   0.00098   1.74843
         Item               Value     Threshold  Converged?
 Maximum Force            0.003760     0.000015     NO 
 RMS     Force            0.001906     0.000010     NO 
 Maximum Displacement     0.124741     0.000060     NO 
 RMS     Displacement     0.031211     0.000040     NO 
 Predicted change in Energy=-8.182436D-04
 GradGradGradGradGradGradGradGradGradGradGradGradGradGradGradGradGradGrad

                          Input orientation:                          
 ---------------------------------------------------------------------
 Center     Atomic      Atomic             Coordinates (Angstroms)
 Number     Number       Type             X           Y           Z
 ---------------------------------------------------------------------
      1          7           0       -0.141280    0.598066    0.132819
      2          6           0       -1.068430    1.388192    1.058117
      3          6           0       -2.469563    1.682818    0.556268
      4          1           0       -0.543305    2.326155    1.271456
      5          1           0       -1.134282    0.792048    1.968860
      6          1           0       -2.926992    2.332980    1.303862
      7          1           0       -2.482790    2.228636   -0.382708
      8          1           0       -3.097012    0.795111    0.465157
      9          6           0       -0.917683   -0.516585   -0.518555
     10          6           0       -0.122725   -1.463298   -1.399364
     11          1           0       -1.705407   -0.050173   -1.102380
     12          1           0       -1.395326   -1.062356    0.296576
     13          1           0       -0.812869   -2.219064   -1.778734
     14          1           0        0.312235   -0.958904   -2.261982
     15          1           0        0.667653   -1.985775   -0.861235
     16          6           0        0.956449   -0.009856    0.995279
     17          6           0        1.607254    0.928916    1.997605
     18          1           0        1.701810   -0.393537    0.301711
     19          1           0        0.500830   -0.861920    1.503652
     20          1           0        2.523879    0.447698    2.348761
     21          1           0        1.861022    1.906385    1.578585
     22          1           0        0.970718    1.110804    2.864411
     23          6           0        0.547331    1.484419   -0.898799
     24          6           0       -0.343137    2.220051   -1.876434
     25          1           0        1.245601    0.829298   -1.416706
     26          1           0        1.097346    2.236956   -0.330701
     27          1           0        0.312632    2.646106   -2.637466
     28          1           0       -1.071922    1.586983   -2.385904
     29          1           0       -0.832258    3.060824   -1.387962
     30         35           0        0.718457    4.411799    0.925231
 ---------------------------------------------------------------------
                    Distance matrix (angstroms):
                    1          2          3          4          5
     1  N    0.000000
     2  C    1.529732   0.000000
     3  C    2.603247   1.517179   0.000000
     4  H    2.108177   1.095922   2.153102   0.000000
     5  H    2.096360   1.090493   2.138191   1.785808   0.000000
     6  H    3.484459   2.099350   1.091260   2.383917   2.455708
     7  H    2.899516   2.186947   1.086171   2.550955   3.067919
     8  H    2.980876   2.195106   1.090879   3.084742   2.472537
     9  C    1.506498   2.477255   2.898439   3.380158   2.818983
    10  C    2.568492   3.881310   4.385224   4.655118   4.177890
    11  H    2.095811   2.672524   2.517599   3.554225   3.235434
    12  H    2.087210   2.586888   2.959291   3.627442   2.510675
    13  H    3.470056   4.596230   4.839582   5.480451   4.818149
    14  H    2.892215   4.293967   4.760213   4.899872   4.801902
    15  H    2.884225   4.252241   5.030906   4.960598   4.355767
    16  C    1.522634   2.461426   3.846483   2.789710   2.441734
    17  C    2.577646   2.872779   4.389335   2.665422   2.745102
    18  H    2.099710   3.379487   4.666519   3.657550   3.496915
    19  H    2.103105   2.779224   4.024484   3.362731   2.371839
    20  H    3.469306   3.931282   5.447295   3.754572   3.693920
    21  H    2.794843   3.020115   4.455231   2.459944   3.219613
    22  H    2.993498   2.738204   4.182135   2.511344   2.309684
    23  C    1.524482   2.539580   3.355329   2.570606   3.395684
    24  C    2.590113   3.135224   3.275415   3.156032   4.177486
    25  H    2.092352   3.433926   4.292268   3.559071   4.138512
    26  H    2.105945   2.709206   3.717071   2.294907   3.515096
    27  H    3.474908   4.140896   4.343785   4.014308   5.171975
    28  H    2.861471   3.449755   3.258674   3.768566   4.427163
    29  H    2.975803   2.972672   2.891315   2.774119   4.062858
    30  Br   3.988938   3.514658   4.212712   2.462078   4.198143
                    6          7          8          9         10
     6  H    0.000000
     7  H    1.747203   0.000000
     8  H    1.759936   1.775144   0.000000
     9  C    3.934278   3.162951   2.727216   0.000000
    10  C    5.439032   4.498208   4.174114   1.517909   0.000000
    11  H    3.600235   2.513011   2.260142   1.085772   2.142429
    12  H    3.858618   3.531944   2.524745   1.091075   2.157888
    13  H    5.890078   4.951723   4.397454   2.120724   1.091515
    14  H    5.834752   4.637268   4.704978   2.178964   1.089822
    15  H    6.021691   5.283516   4.864704   2.188433   1.089616
    16  C    4.545901   4.328748   4.166478   2.461876   3.001903
    17  C    4.797089   4.907507   4.949386   3.846536   4.500546
    18  H    5.464797   4.985489   4.946543   2.747675   2.714216
    19  H    4.690125   4.691682   4.094959   2.494144   3.029518
    20  H    5.861578   5.974898   5.938272   4.582105   4.970398
    21  H    4.814824   4.776947   5.201610   4.241459   4.915098
    22  H    4.372776   4.870323   4.733128   4.202250   5.099156
    23  C    4.200321   3.162570   3.951804   2.508958   3.064078
    24  C    4.099188   2.609484   3.885528   3.108556   3.720650
    25  H    5.203180   4.114390   4.732955   2.701457   2.669946
    26  H    4.344687   3.580523   4.506100   3.417253   4.040111
    27  H    5.111485   3.615606   4.967708   4.000759   4.313888
    28  H    4.196685   2.532798   3.585610   2.817052   3.343419
    29  H    3.487633   2.104123   3.700894   3.682530   4.579438
    30  Br   4.213567   4.089607   5.277301   5.389846   6.374017
                   11         12         13         14         15
    11  H    0.000000
    12  H    1.754349   0.000000
    13  H    2.440935   2.446250   0.000000
    14  H    2.498269   3.077772   1.757098   0.000000
    15  H    3.071826   2.539510   1.757320   1.772816   0.000000
    16  C    3.389288   2.669604   3.963109   3.453325   2.726592
    17  C    4.641362   3.984238   5.479737   4.835806   4.189420
    18  H    3.701148   3.168532   3.739574   2.970367   2.226465
    19  H    3.509675   2.256682   3.787044   3.771601   2.623656
    20  H    5.481342   4.674601   5.939842   5.303663   4.435250
    21  H    4.871869   4.589201   5.953202   5.035730   4.746131
    22  H    4.923915   4.112731   5.985649   5.567512   4.853976
    23  C    2.733358   3.418903   4.042304   2.807733   3.472483
    24  C    2.758416   4.074711   4.464968   3.268626   4.443119
    25  H    3.095273   3.672626   3.696062   2.187082   2.926979
    26  H    3.698901   4.182385   5.059826   3.815726   4.277565
    27  H    3.701201   5.027763   5.066957   3.624512   4.973465
    28  H    2.174631   3.784083   3.862870   2.900481   4.256212
    29  H    3.243802   4.489468   5.294365   4.269894   5.291062
    30  Br   5.467680   5.901665   7.322891   6.258418   6.642515
                   16         17         18         19         20
    16  C    0.000000
    17  C    1.519703   0.000000
    18  H    1.088031   2.152644   0.000000
    19  H    1.091808   2.162235   1.762498   0.000000
    20  H    2.120874   1.093198   2.360908   2.553828   0.000000
    21  H    2.197835   1.093353   2.635412   3.085328   1.777729
    22  H    2.179389   1.090695   3.060223   2.442150   1.765762
    23  C    2.446992   3.133876   2.510132   3.358459   3.940581
    24  C    3.861107   4.525399   3.969505   4.651432   5.404933
    25  H    2.570109   3.434856   2.157871   3.455922   3.994791
    26  H    2.612707   2.718820   2.772150   3.650167   3.523629
    27  H    4.545929   5.109664   4.450618   5.430518   5.880908
    28  H    4.254008   5.179400   4.340429   4.857914   6.053496
    29  H    4.278830   4.685970   4.605334   5.052374   5.661730
    30  Br   4.428610   3.751056   4.944392   5.309807   4.582585
                   21         22         23         24         25
    21  H    0.000000
    22  H    1.754690   0.000000
    23  C    2.835714   3.805338   0.000000
    24  C    4.110215   5.043041   1.513228   0.000000
    25  H    3.242010   4.299159   1.088573   2.160934   0.000000
    26  H    2.082751   3.390132   1.091588   2.112953   1.784065
    27  H    4.551899   5.749859   2.104177   1.091204   2.379386
    28  H    4.941796   5.653753   2.200904   1.091540   2.623803
    29  H    4.169759   5.013579   2.151185   1.088459   3.049268
    30  Br   2.830093   3.836747   3.453393   3.712152   4.312409
                   26         27         28         29         30
    26  H    0.000000
    27  H    2.470697   0.000000
    28  H    3.058111   1.761253   0.000000
    29  H    2.349453   1.744713   1.795977   0.000000
    30  Br   2.539855   3.996897   4.706236   3.095273   0.000000
 Symmetry turned off by external request.
 Stoichiometry    C8H20BrN
 Framework group  C1[X(C8H20BrN)]
 Deg. of freedom    84
 Full point group                 C1      NOp   1
 Rotational constants (GHZ):           1.2709239           0.4584970           0.4284629
 Basis read from rwf:  (5D, 7F)
 Pseudo-potential data read from rwf file.
   294 basis functions,   515 primitive gaussians,   305 cartesian basis functions
    55 alpha electrons       55 beta electrons
       nuclear repulsion energy       872.6823784549 Hartrees.
 NAtoms=   30 NActive=   30 NUniq=   30 SFac= 1.00D+00 NAtFMM=   60 NAOKFM=F Big=F
 Integral buffers will be    131072 words long.
 Raffenetti 2 integral format.
 Two-electron integral symmetry is turned off.
 One-electron integrals computed using PRISM.
   1 Symmetry operations used in ECPInt.
 ECPInt:  NShTT=    7021 NPrTT=   29199 LenC2=    6801 LenP2D=   20466.
 LDataN:  DoStor=T MaxTD1= 4 Len=   56
 NBasis=   294 RedAO= T EigKep=  3.50D-05  NBF=   294
 NBsUse=   294 1.00D-06 EigRej= -1.00D+00 NBFU=   294
 Initial guess from the checkpoint file:  "TEAB_opt_freq_sin.chk"
 B after Tr=     0.000485    0.002894    0.002806
         Rot=    0.999998    0.000357    0.000106    0.002051 Ang=   0.24 deg.
 ExpMin= 3.50D-02 ExpMax= 5.74D+05 ExpMxC= 5.74D+03 IAcc=3 IRadAn=         5 AccDes= 0.00D+00
 Harris functional with IExCor=  402 and IRadAn=       5 diagonalized for initial guess.
 HarFok:  IExCor=  402 AccDes= 0.00D+00 IRadAn=         5 IDoV= 1 UseB2=F ITyADJ=14
 ICtDFT=  3500011 ScaDFX=  1.000000  1.000000  1.000000  1.000000
 FoFCou: FMM=F IPFlag=           0 FMFlag=      100000 FMFlg1=           0
         NFxFlg=           0 DoJE=T BraDBF=F KetDBF=T FulRan=T
         wScrn=  0.000000 ICntrl=       500 IOpCl=  0 I1Cent=   200000004 NGrid=           0
         NMat0=    1 NMatS0=      1 NMatT0=    0 NMatD0=    1 NMtDS0=    0 NMtDT0=    0
 Symmetry not used in FoFCou.
 Gradient too large for Newton-Raphson -- use scaled steepest descent instead.
     Minimum is close to point  4 DX=  6.81D-03 DF= -3.82D-08 DXR=  5.64D-03 DFR=  3.18D-05 which will be used.
 Gradient too large for Newton-Raphson -- use scaled steepest descent instead.
 Gradient too large for Newton-Raphson -- use scaled steepest descent instead.
     Accept linear search using points  1 and  2.
 Gradient too large for Newton-Raphson -- use scaled steepest descent instead.
     Accept linear search using points  1 and  2.
 LinEq1:  Iter=  0 NonCon=     1 RMS=7.71D-05 Max=1.09D-03 NDo=     1
 AX will form     1 AO Fock derivatives at one time.
 LinEq1:  Iter=  1 NonCon=     1 RMS=3.61D-06 Max=4.69D-05 NDo=     1
 LinEq1:  Iter=  2 NonCon=     1 RMS=1.84D-06 Max=2.12D-05 NDo=     1
 LinEq1:  Iter=  3 NonCon=     1 RMS=9.88D-07 Max=1.37D-05 NDo=     1
 LinEq1:  Iter=  4 NonCon=     1 RMS=5.07D-07 Max=5.01D-06 NDo=     1
 LinEq1:  Iter=  5 NonCon=     1 RMS=2.12D-07 Max=3.22D-06 NDo=     1
 LinEq1:  Iter=  6 NonCon=     1 RMS=7.97D-08 Max=9.75D-07 NDo=     1
 LinEq1:  Iter=  7 NonCon=     1 RMS=3.31D-08 Max=3.89D-07 NDo=     1
 LinEq1:  Iter=  8 NonCon=     1 RMS=1.33D-08 Max=1.69D-07 NDo=     1
 LinEq1:  Iter=  9 NonCon=     0 RMS=4.50D-09 Max=4.10D-08 NDo=     1
 Linear equations converged to 1.621D-08 1.621D-07 after     9 iterations.
     Accept linear search using points  2 and  3.
     Minimum is close to point  2 DX=  1.12D-05 DF=  0.00D+00 DXR=  1.12D-05 DFR=  0.00D+00 which will be used.
 LinEq1:  Iter=  0 NonCon=     1 RMS=1.24D-07 Max=1.68D-06 NDo=     1
 LinEq1:  Iter=  1 NonCon=     1 RMS=3.56D-08 Max=3.57D-07 NDo=     1
 LinEq1:  Iter=  2 NonCon=     1 RMS=2.06D-08 Max=2.56D-07 NDo=     1
 LinEq1:  Iter=  3 NonCon=     1 RMS=1.06D-08 Max=1.39D-07 NDo=     1
 LinEq1:  Iter=  4 NonCon=     1 RMS=4.27D-09 Max=5.34D-08 NDo=     1
 LinEq1:  Iter=  5 NonCon=     1 RMS=1.65D-09 Max=2.39D-08 NDo=     1
 LinEq1:  Iter=  6 NonCon=     1 RMS=5.64D-10 Max=7.96D-09 NDo=     1
 LinEq1:  Iter=  7 NonCon=     1 RMS=2.51D-10 Max=3.59D-09 NDo=     1
 LinEq1:  Iter=  8 NonCon=     0 RMS=7.46D-11 Max=7.94D-10 NDo=     1
 Linear equations converged to 1.391D-10 1.391D-09 after     8 iterations.
 SCF Done:  E(RB3LYP) =  -2943.07226269     a.u. after    7 cycles
            Convg  =    0.3001D-09                    32 Fock formations.
              S**2 =  0.0000                  -V/T =  2.0009
 DoSCS=F DFT=T ScalE2(SS,OS)=  1.000000  1.000000
 Range of M.O.s used for correlation:     1   294
 NBasis=   294 NAE=    55 NBE=    55 NFC=     0 NFV=     0
 NROrb=    294 NOA=    55 NOB=    55 NVA=   239 NVB=   239

 **** Warning!!: The largest alpha MO coefficient is  0.37938132D+02

   1 Symmetry operations used in ECPInt.
 ECPInt:  NShTT=    7021 NPrTT=   29199 LenC2=    6801 LenP2D=   20466.
 LDataN:  DoStor=T MaxTD1= 5 Len=  102
 Number of processors reduced to  43 by ecpmxn.
 Symmetrizing basis deriv contribution to polar:
 IMax=3 JMax=2 DiffMx= 0.00D+00
 G2DrvN: will do    31 centers at a time, making    1 passes.
 Calling FoFCou, ICntrl=  3107 FMM=F I1Cent=   0 AccDes= 0.00D+00.
 End of G2Drv F.D. properties file   721 does not exist.
 End of G2Drv F.D. properties file   722 does not exist.
 End of G2Drv F.D. properties file   788 does not exist.
          IDoAtm=111111111111111111111111111111
          Differentiating once with respect to electric field.
                with respect to dipole field.
          Differentiating once with respect to nuclear coordinates.
 Keep R1 ints in memory in canonical form, NReq=1012960202.
          There are    93 degrees of freedom in the 1st order CPHF.  IDoFFX=6 NUNeed=     3.
     90 vectors produced by pass  0 Test12= 1.41D-14 1.08D-09 XBig12= 1.08D+02 2.09D+00.
 AX will form    90 AO Fock derivatives at one time.
     90 vectors produced by pass  1 Test12= 1.41D-14 1.08D-09 XBig12= 9.12D+00 6.82D-01.
     90 vectors produced by pass  2 Test12= 1.41D-14 1.08D-09 XBig12= 1.11D-01 6.80D-02.
     90 vectors produced by pass  3 Test12= 1.41D-14 1.08D-09 XBig12= 2.94D-04 3.25D-03.
     90 vectors produced by pass  4 Test12= 1.41D-14 1.08D-09 XBig12= 3.90D-07 9.94D-05.
     54 vectors produced by pass  5 Test12= 1.41D-14 1.08D-09 XBig12= 3.64D-10 2.41D-06.
      3 vectors produced by pass  6 Test12= 1.41D-14 1.08D-09 XBig12= 3.07D-13 5.91D-08.
      3 vectors produced by pass  7 Test12= 1.41D-14 1.08D-09 XBig12= 2.19D-16 1.65D-09.
 InvSVY:  IOpt=1 It=  1 EMax= 8.88D-15
 Solved reduced A of dimension   510 with    93 vectors.
 Isotropic polarizability for W=    0.000000      134.18 Bohr**3.
 End of Minotr F.D. properties file   721 does not exist.
 End of Minotr F.D. properties file   722 does not exist.
 End of Minotr F.D. properties file   788 does not exist.
   1 Symmetry operations used in ECPInt.
 ECPInt:  NShTT=    7021 NPrTT=   29199 LenC2=    6801 LenP2D=   20466.
 LDataN:  DoStor=T MaxTD1= 6 Len=  172
 Calling FoFJK, ICntrl=    100127 FMM=F ISym2X=0 I1Cent= 0 IOpClX= 0 NMat=1 NMatS=1 NMatT=0.
 -------------------------------------------------------------------
 Center     Atomic                   Forces (Hartrees/Bohr)
 Number     Number              X              Y              Z
 -------------------------------------------------------------------
      1        7          -0.000001519    0.000089897    0.000118143
      2        6          -0.000913889    0.001463387    0.002659231
      3        6          -0.002010911    0.000115728   -0.000424121
      4        1           0.000942655    0.001915704    0.000374388
      5        1          -0.000186986   -0.000984567    0.001874072
      6        1          -0.001105649    0.001295794    0.001417051
      7        1          -0.000585643    0.001240789   -0.001645892
      8        1          -0.001688900   -0.001521908   -0.000093816
      9        6          -0.002628758   -0.001994310   -0.000764689
     10        6           0.001020814   -0.001538598   -0.001315499
     11        1          -0.001595654    0.000733758   -0.001084166
     12        1          -0.000978139   -0.001198554    0.001447054
     13        1          -0.001066946   -0.001476671   -0.000870222
     14        1           0.000909971    0.000302812   -0.001716781
     15        1           0.001378749   -0.001364719    0.000529298
     16        6           0.002064972   -0.002487168    0.001220838
     17        6           0.001464969    0.001704570    0.002166564
     18        1           0.001388762   -0.000896492   -0.001164472
     19        1          -0.000685950   -0.001619069    0.001009865
     20        1           0.000937652   -0.000273864    0.000663386
     21        1           0.000531033    0.000568655    0.000317799
     22        1           0.000025697    0.000147655    0.000916293
     23        6           0.002640190    0.001236796   -0.001768469
     24        6          -0.001384276    0.000882473   -0.001620193
     25        1           0.001453490   -0.001245563   -0.000962406
     26        1           0.000745642    0.001715595    0.001080365
     27        1           0.001188708    0.000922489   -0.001613729
     28        1          -0.001502485   -0.000910988   -0.001550539
     29        1          -0.001071184    0.001708549    0.000168854
     30       35           0.000713581    0.001467819    0.000631793
 -------------------------------------------------------------------
 Cartesian Forces:  Max     0.002659231 RMS     0.001300078

 GradGradGradGradGradGradGradGradGradGradGradGradGradGradGradGradGradGrad
 Berny optimization.
 Search for a local minimum.
 Step number   2 out of a maximum of  100
 All quantities printed in internal units (Hartrees-Bohrs-Radians)
 Second derivative matrix not updated -- analytic derivatives used.
 DE= -7.91D-04 DEPred=-8.18D-04 R= 9.67D-01
 TightC=F SS=  1.41D+00  RLast= 2.96D-01 DXNew= 5.0454D-01 8.8827D-01
 Trust test= 9.67D-01 RLast= 2.96D-01 DXMaxT set to 5.05D-01
 ITU=  1  0
     Eigenvalues ---   -0.00008   0.00006   0.00023   0.00085   0.00122
     Eigenvalues ---    0.00187   0.00220   0.00250   0.00369   0.00442
     Eigenvalues ---    0.00581   0.00642   0.00884   0.01102   0.01325
     Eigenvalues ---    0.01493   0.01808   0.02107   0.02692   0.03075
     Eigenvalues ---    0.03402   0.03479   0.03667   0.03729   0.04525
     Eigenvalues ---    0.05342   0.05607   0.05643   0.06154   0.06578
     Eigenvalues ---    0.06804   0.07100   0.07284   0.07607   0.07793
     Eigenvalues ---    0.07870   0.08005   0.09673   0.09728   0.09891
     Eigenvalues ---    0.10155   0.10937   0.11259   0.11328   0.11441
     Eigenvalues ---    0.13773   0.13977   0.13989   0.14173   0.14683
     Eigenvalues ---    0.15424   0.16192   0.16570   0.20186   0.20276
[...]
 0014894,-0.00006079,-0.00222709,-0.00215585,0.00104683,-0.00004947,-0.
 00017822,-0.00020519,-0.00025091,0.00016772,0.00008726,0.00062835,0.00
 000395,0.00075765,0.00003105,0.00012859,-0.00003831,0.00022021,0.00024
 830,0.00029174,0.00002522,0.00019779,-0.00009415,0.03147719,-0.0983997
 5,0.02468192,0.01845977,0.55621240,-0.00857018,0.01213110,-0.01899915,
 -0.00048218,-0.00005335,0.00064234,0.00148517,-0.00071039,-0.00006462,
 0.00005063,-0.00003815,-0.00016917,-0.00009284,-0.00018200,0.00009201,
 0.00006535,0.00021735,-0.00032787,0.00099559,0.00105589,-0.00166201,-0
 .00004868,-0.00001911,-0.00004514,0.00128343,-0.00024771,-0.00012472,-
 0.00002892,-0.00013050,-0.00042379,-0.00075104,0.00074055,-0.00004449,
 -0.00048192,-0.00030058,-0.00022386,-0.00009430,-0.00009768,0.00011381
 ,0.00011600,0.00003086,0.00033719,-0.00011987,0.00011025,0.00003378,0.
 00312475,0.00033189,-0.00027200,-0.00021043,-0.00000996,0.00016998,-0.
 00049122,0.00029473,0.00028266,-0.00094208,0.00031222,0.00002887,-0.00
 003326,-0.00004534,-0.00009979,0.00002546,0.00003035,-0.00004844,0.000
 01672,0.00004969,0.00000860,-0.05090172,0.02849300,-0.12695643,-0.0300
 0135,0.04769033,0.51691867,-0.01568271,0.00698119,0.01312902,0.0006114
 2,-0.00315124,0.00058157,0.00007308,0.00022547,0.00000495,-0.00008908,
 -0.00023033,-0.00008738,-0.00050390,0.00039310,0.00062824,-0.00011515,
 -0.00002830,-0.00002448,0.00007742,-0.00005354,-0.00004869,-0.00005361
 ,-0.00005058,0.00001298,-0.00042616,0.00138863,0.00115309,0.00018915,-
 0.00020792,0.00080993,-0.00006859,-0.00007805,0.00002999,0.00009296,-0
 .00020646,-0.00017961,0.00030605,0.00024364,-0.00041765,0.00008292,-0.
 00068202,-0.00109319,0.00002026,-0.00001853,-0.00010468,-0.00026017,0.
 00175797,-0.00226896,0.00019293,-0.00005290,0.00011993,0.00102069,-0.0
 0006755,-0.00067054,0.00021861,-0.00024816,-0.00033467,0.00004213,0.00
 004874,0.00001494,-0.00002882,-0.00007593,0.00001687,-0.00005529,-0.00
 006999,-0.00008542,-0.17516078,0.10475426,0.07769961,-0.01279768,0.013
 23568,0.00718394,0.18955284,-0.01701463,0.00798337,0.01523859,-0.00064
 418,-0.00270600,0.00218206,0.00005640,0.00011542,0.00022646,-0.0001827
 2,-0.00029171,0.00015769,-0.00073286,0.00073187,0.00067348,-0.00009496
 ,0.00001082,-0.00009021,-0.00020587,-0.00003148,-0.00007370,0.00001621
 ,0.00003193,-0.00005271,-0.00009620,0.00089154,0.00005621,-0.00064748,
 -0.00125505,-0.00108901,-0.00010423,-0.00012608,-0.00000891,0.00018703
 ,0.00001320,-0.00006358,-0.00008365,-0.00013333,0.00021982,-0.00113085
 ,-0.00178078,-0.00019917,0.00003465,-0.00009100,0.00000325,-0.00148041
 ,0.00059252,0.00120339,-0.00000269,-0.00008154,-0.00015083,-0.00011913
 ,-0.00002857,0.00083711,-0.00025332,0.00018348,0.00003669,0.00002258,0
 .00006855,-0.00000020,0.00014252,-0.00022739,-0.00007934,-0.00008347,-
 0.00006550,0.00003999,0.11275080,-0.14241450,-0.07451133,0.00759917,-0
 .00807989,-0.00434233,-0.11789107,0.15567954,0.01707617,-0.00925939,-0
 .01659903,0.00013089,0.00360299,-0.00188334,-0.00005216,-0.00003611,-0
 .00042594,0.00005061,0.00040237,0.00026485,0.00112837,-0.00058261,-0.0
 0074086,0.00012940,-0.00002770,0.00010615,0.00017832,0.00003483,0.0000
 4828,0.00007064,-0.00001175,0.00007867,-0.00057268,-0.00087159,-0.0003
 8814,-0.00040126,-0.00064274,0.00010878,0.00000979,0.00006060,0.000018
 65,0.00007553,0.00007612,-0.00001465,-0.00019449,-0.00002447,0.0000736
 8,-0.00049281,-0.00081233,0.00030100,0.00003981,0.00023147,-0.00006267
 ,0.00310128,-0.00145635,-0.00069128,-0.00043831,0.00017158,-0.00002395
 ,-0.00072325,0.00142994,-0.00055064,-0.00043659,0.00006442,0.00033216,
 -0.00004937,0.00001584,-0.00010067,0.00018115,-0.00020596,-0.00001498,
 0.00006922,0.00001956,0.00018512,0.07720081,-0.06533842,-0.09506794,-0
 .01748508,0.01584029,0.00967926,-0.08775982,0.06458107,0.11195515,-0.0
 1112350,-0.01631892,-0.00445539,-0.00025442,-0.00112874,-0.00094785,-0
 .00010229,0.00010072,0.00008430,-0.00053400,0.00004330,0.00101854,0.00
 018912,0.00017866,-0.00012911,-0.00000775,0.00001698,0.00000560,-0.000
 06777,-0.00004296,-0.00002560,0.00009349,0.00000610,0.00000011,-0.0004
 9143,-0.00044155,0.00318110,0.00015285,0.00019841,0.00048797,0.0000911
 6,0.00014681,-0.00009053,-0.00038660,-0.00074261,-0.00043934,0.0001838
 0,0.00011999,-0.00024018,0.00009729,-0.00001982,-0.00048186,-0.0000025
 1,-0.00003472,-0.00003937,0.00010923,0.00050431,-0.00041989,0.00018767
 ,0.00055814,-0.00056919,0.00014077,-0.00004764,0.00028467,-0.00010942,
 -0.00001477,-0.00001102,-0.00004538,0.00001793,0.00000971,0.00003226,0
 .00041161,-0.00145051,-0.00005543,-0.00014599,0.00001646,-0.09922062,-
 0.07720595,-0.05592971,-0.01014290,-0.01213175,-0.01378517,0.01238814,
 0.01819020,0.01237311,0.11090261,-0.01014400,-0.01657379,-0.00440822,-
 0.00051172,0.00014256,-0.00026556,0.00012524,-0.00021008,-0.00004040,0
 .00103000,0.00206272,-0.00008176,0.00023935,-0.00020557,-0.00021461,0.
 00017820,0.00007217,-0.00007782,-0.00006277,0.00017983,0.00012577,-0.0
 0003873,-0.00004945,-0.00001096,0.00001285,-0.00018896,0.00192894,-0.0
 0003260,0.00018062,0.00022892,-0.00013793,-0.00006620,0.00012590,-0.00
 020045,-0.00010413,-0.00034697,0.00005416,0.00003676,-0.00003786,0.000
 10467,-0.00009804,-0.00014587,-0.00000169,-0.00001017,-0.00005223,-0.0
 0007258,-0.00092946,0.00014228,-0.00004374,-0.00068181,0.00032181,0.00
 013870,-0.00034659,-0.00002965,0.00006516,0.00024490,-0.00027558,0.000
 03295,0.00001027,-0.00019898,0.00020919,0.00175768,0.00059610,0.000103
 79,0.00033888,-0.00034741,-0.08302827,-0.18140072,-0.09626600,0.007440
 92,0.01302097,0.00709523,-0.00547617,-0.00856052,-0.00717971,0.0873669
 3,0.19330983,0.01530405,0.02388262,0.00985110,-0.00086101,0.00115790,0
 .00188350,0.00008952,-0.00027695,-0.00033048,0.00151662,0.00097766,-0.
 00055717,0.00005913,-0.00009117,-0.00006937,0.00017337,-0.00001256,0.0
 0000406,-0.00006193,0.00005295,0.00001999,-0.00016130,0.00000241,-0.00
 002560,0.00167925,0.00241011,-0.00520379,0.00027461,-0.00017807,-0.000
 30882,0.00006506,-0.00007408,0.00001240,0.00120715,0.00153365,0.000688
 06,-0.00008710,0.00002330,0.00011088,-0.00022408,-0.00008693,0.0001231
 7,-0.00007947,0.00001033,0.00002221,0.00107063,-0.00010770,0.00164733,
 -0.00002465,0.00054804,-0.00116826,-0.00010551,-0.00019161,-0.00010805
 ,-0.00010156,-0.00008902,-0.00011480,-0.00006343,-0.00031006,0.0000378
 1,-0.00137635,0.00125996,-0.00219810,-0.00003533,0.00007048,-0.0001649
 9,-0.06306523,-0.10712474,-0.12644171,-0.01253574,-0.01317375,-0.01333
 257,-0.00524425,-0.00678626,-0.00487263,0.06378899,0.09510923,0.142462
 19,-0.00188625,0.00287207,-0.00512387,-0.00063719,0.00048918,0.0001591
 3,-0.00039128,0.00032761,-0.00030830,0.00002947,-0.00002569,-0.0000249
 5,0.00016344,-0.00010859,-0.00006376,0.00003171,-0.00013126,0.00023152
 ,0.00025836,-0.00036595,0.00038745,-0.00000202,-0.00008044,0.00014668,
 -0.00081341,-0.00046002,-0.00036941,0.00011387,0.00003608,0.00010118,0
 .00028805,0.00008475,0.00010783,0.00014138,0.00003265,0.00008788,-0.00
 003092,0.00002912,0.00002759,-0.00002642,-0.00001673,0.00003546,0.0000
 3730,-0.00004285,-0.00003351,0.00089095,0.00050235,-0.00039671,-0.0000
 3423,0.00006044,0.00003909,-0.00003958,0.00003061,0.00005398,-0.000292
 80,0.00023874,-0.00023305,-0.00000399,-0.00003082,-0.00003064,-0.00000
 538,-0.00001586,-0.00002844,-0.00000394,-0.00001532,-0.00000859,0.0111
 6257,0.00828963,-0.01162074,-0.15085043,-0.07435042,0.11042321,0.00128
 389,0.00039562,0.00022315,0.00055285,-0.00048698,0.00025498,0.16267367
 ,0.00231531,-0.00102002,0.00191424,0.00038815,-0.00036806,-0.00008206,
 0.00039549,-0.00000867,0.00003691,0.00001498,0.00004015,0.00012256,-0.
 00009458,0.00006358,0.00003796,0.00002371,0.00006830,-0.00011784,-0.00
 026690,0.00013209,-0.00025081,0.00005360,0.00010089,-0.00017628,-0.000
 11888,0.00042449,0.00017704,-0.00010648,0.00000180,0.00016861,0.000317
 79,-0.00004366,-0.00003174,0.00013489,-0.00005967,0.00008577,0.0000259
 7,-0.00000657,-0.00002968,-0.00003217,-0.00005348,0.00000863,0.0000445
 6,-0.00001708,-0.00002682,-0.00071483,-0.00024297,0.00036188,0.0000670
 6,-0.00005093,-0.00003431,0.00003169,-0.00004882,-0.00000998,0.0002427
 6,-0.00010865,0.00016422,0.00000899,0.00001512,0.00003752,-0.00001170,
 0.00002935,0.00002029,0.00000330,0.00000848,0.00000023,-0.00920831,-0.
 00795649,0.00997802,-0.07298500,-0.09514438,0.07575211,-0.00039228,0.0
 0009292,-0.00044820,0.00002454,0.00046023,-0.00016390,0.07783999,0.101
 79532,-0.00421251,0.00125473,-0.00250522,-0.00037272,-0.00008773,0.000
 62584,0.00016589,-0.00010573,0.00017873,0.00018900,0.00018090,0.000078
 76,0.00002217,0.00001621,-0.00006191,0.00007190,0.00005490,-0.00002407
 ,-0.00004680,0.00007572,-0.00026588,0.00004531,0.00006239,-0.00013056,
 -0.00071278,-0.00071500,-0.00010711,0.00008277,0.00005492,0.00005063,0
 .00024912,-0.00001397,-0.00003070,0.00013538,0.00004472,0.00008472,-0.
 00002270,0.00002886,0.00002516,-0.00001986,0.00000356,0.00001622,0.000
 01388,-0.00002532,-0.00001835,0.00122348,0.00060818,-0.00030934,-0.000
 03590,0.00006837,0.00004436,-0.00005191,0.00004032,0.00001557,-0.00033
 433,0.00022469,-0.00028632,-0.00001608,-0.00004100,-0.00003354,-0.0000
 0640,0.00003703,-0.00001312,0.00000243,-0.00000966,-0.00000178,0.01517
 194,0.00976929,-0.01589227,0.10859040,0.07609004,-0.16011366,0.0001521
 5,0.00021707,0.00125130,0.00027842,-0.00024998,0.00023266,-0.11713656,
 -0.08559886,0.17283436,0.00078625,0.00025553,0.00049580,-0.00008312,0.
 00018291,0.00009380,0.00007722,-0.00007725,-0.00004182,-0.00008346,0.0
 0004115,0.00002397,0.00003162,-0.00001602,-0.00005949,0.00003516,0.000
 03847,-0.00006429,0.00006351,0.00023161,0.00006617,0.00004634,-0.00000
 288,-0.00000249,-0.00025618,-0.00084213,-0.00010431,0.00026445,0.00030
 854,-0.00006738,0.00045639,-0.00091061,0.00057608,0.00027914,0.0001583
 1,0.00029241,-0.00003499,0.00000976,0.00004254,-0.00039707,0.00031059,
 0.00002034,-0.00006697,-0.00013170,0.00015140,0.00012820,-0.00020592,0
 .00015350,-0.00001780,-0.00002003,-0.00001858,-0.00004878,-0.00006296,
 0.00000215,0.00004598,0.00009978,-0.00007284,-0.00000308,0.00002307,-0
 .00003076,0.00007349,0.00008087,0.00009370,0.00001361,0.00004285,-0.00
 002853,-0.01129876,-0.01420180,-0.00741893,-0.13374766,-0.09408304,-0.
 07622400,0.00005584,-0.00009418,0.00021789,-0.00105921,0.00349926,-0.0
 0161998,-0.01134385,-0.01250259,-0.01099942,0.14318720,-0.00090564,0.0
 0065982,-0.00088460,-0.00013385,-0.00000359,0.00020385,-0.00005562,0.0
 0032328,-0.00007390,0.00000842,-0.00016914,0.00004354,0.00006249,0.000
 03113,-0.00000150,0.00001387,-0.00007723,0.00011049,-0.00014973,-0.000
 31997,0.00001185,0.00003563,0.00003901,-0.00005402,-0.00078012,-0.0010
 3932,0.00100118,-0.00003277,-0.00002965,0.00017547,-0.00026864,-0.0012
 3351,0.00126060,0.00012263,0.00012183,0.00000821,-0.00001433,-0.000016
 07,0.00001578,0.00020639,-0.00016744,-0.00004109,0.00004839,0.00007863
 ,-0.00007569,0.00025994,0.00019778,-0.00024885,0.00000388,0.00012627,0
 .00003751,0.00001415,0.00001213,-0.00000773,-0.00007982,0.00003194,-0.
 00008487,-0.00000855,-0.00000697,-0.00000617,0.00000378,-0.00012350,-0
 .00001494,-0.00000871,-0.00004595,0.00001926,0.00991149,0.01213326,0.0
 0812236,-0.09483334,-0.15971728,-0.08668522,-0.00055879,0.00044945,-0.
 00053418,0.00175066,-0.00133522,0.00210667,-0.00662964,-0.00931202,-0.
 00747817,0.10748934,0.17221415,0.00020341,-0.00145658,0.00123662,-0.00
 014858,0.00009085,-0.00017986,-0.00015397,0.00036380,-0.00002839,-0.00
 013554,-0.00014367,0.00016698,0.00008642,0.00000927,-0.00000643,-0.000
 00081,-0.00006635,0.00020055,0.00003662,-0.00045115,-0.00004286,0.0001
 0407,0.00005693,-0.00006340,-0.00075369,0.00037246,-0.00074280,0.00017
 592,0.00010097,0.00029539,0.00097667,0.00113095,-0.00070562,0.00036549
 ,-0.00010082,0.00029191,-0.00001984,0.00000737,0.00001402,-0.00018428,
 0.00009255,0.00006801,0.00005898,-0.00016923,-0.00001729,-0.00021778,0
 .00001293,0.00007616,0.00007785,-0.00007915,-0.00002561,0.00003366,-0.
 00011114,0.00002334,0.00011004,0.00010082,-0.00004365,0.00001978,0.000
 05583,0.00000558,0.00008011,0.00005044,0.00011498,0.00000677,0.0000476
 9,-0.00004144,-0.01270389,-0.01587329,-0.01310447,-0.07513390,-0.08654
 889,-0.11330765,0.00050562,0.00051656,0.00050669,-0.00282020,0.0034065
 1,-0.00186745,0.01178755,0.01360273,0.01236639,0.08556443,0.09222150,0
 .12157188,0.00053605,-0.00034304,-0.00020748,0.00021172,0.00053406,-0.
 00039440,-0.00103501,-0.00046435,0.00088187,0.00014319,0.00032014,-0.0
 0011415,-0.00005356,-0.00003629,-0.00007655,-0.00001122,-0.00005591,0.
 00013014,-0.00105411,-0.00119743,0.00186671,-0.00010980,-0.00001829,-0
 .00001105,-0.00023245,-0.00018617,-0.00019853,0.00010257,0.00006459,0.
 00008506,0.00011718,-0.00004911,-0.00010842,0.00008801,0.00002601,0.00
 006119,0.00003313,0.00004309,-0.00002470,-0.00016486,0.00005852,-0.000
 06230,-0.00003832,-0.00007381,0.00006724,0.00007371,0.00011899,0.00012
 568,0.00004687,-0.00004725,0.00000046,0.00011010,-0.00013082,-0.000033
 37,0.00003328,-0.00000745,-0.00013612,-0.00000475,-0.00003324,0.000000
 04,-0.00004929,0.00014880,0.00002408,0.00000061,0.00001184,-0.00003588
 ,-0.01288646,0.01205390,0.00802989,-0.13247577,0.11129415,0.05875015,-
 0.00099357,0.00180974,-0.00341673,0.00037151,0.00076307,0.00087487,-0.
 01130490,0.01457250,0.00782387,0.01254838,-0.01513557,-0.00795081,0.14
 550277,0.00006309,0.00008488,-0.00069325,0.00052621,-0.00068602,0.0003
 6242,0.00064631,-0.00036871,0.00053291,0.00021027,0.00036420,0.0001294
 3,-0.00017405,0.00012586,-0.00003554,0.00006453,0.00022119,-0.00043092
 ,-0.00129824,0.00059409,0.00011180,0.00008268,0.00021527,-0.00036974,0
 .00002025,-0.00018839,0.00007613,-0.00000143,0.00010769,-0.00008888,0.
 00010982,-0.00020602,-0.00018386,0.00002849,-0.00005176,0.00006407,-0.
 00002049,-0.00000754,0.00002121,-0.00010177,0.00012355,0.00008992,-0.0
 0004343,0.00001340,0.00006058,0.00018954,-0.00014450,0.00025483,-0.000
 01310,-0.00000142,-0.00002011,-0.00014580,0.00009012,0.00002891,-0.000
 05309,0.00000261,0.00007340,-0.00001627,-0.00001382,-0.00000024,-0.000
 00855,0.00003808,-0.00001167,0.00001302,0.00001324,0.00003825,0.009033
 19,-0.00987535,-0.00385364,0.11260994,-0.19437128,-0.08176190,0.000966
 53,0.00005042,0.00168243,-0.00101171,0.00017729,-0.00030623,-0.0086149
 7,0.01135119,0.00574567,0.01084972,-0.01302504,-0.00690336,-0.12385572
 ,0.20560902,0.00031509,-0.00008726,0.00097548,-0.00006181,0.00048433,0
 .00013814,0.00111211,0.00014375,-0.00085670,-0.00010737,0.00018548,-0.
 00031545,0.00001266,-0.00021214,-0.00001106,0.00010607,0.00011474,-0.0
 0019521,0.00130223,0.00109567,-0.00089119,0.00002008,-0.00005890,0.000
 05313,-0.00006865,-0.00005354,-0.00007376,0.00005602,0.00002330,0.0000
 0860,0.00008488,-0.00000090,-0.00000611,0.00003633,0.00004096,0.000029
 98,0.00003267,0.00001452,-0.00002514,-0.00008803,0.00000403,-0.0000802
 1,-0.00001784,-0.00005527,0.00003948,-0.00025164,0.00017495,-0.0000700
 0,0.00005877,-0.00004925,0.00001678,0.00018195,-0.00014242,-0.00008093
 ,0.00009676,-0.00003771,-0.00013656,0.00001289,-0.00002071,-0.00000038
 ,-0.00004279,0.00009706,0.00001526,-0.00000730,0.00000327,-0.00004645,
 -0.01617902,0.01863145,0.01098814,0.06222226,-0.08354056,-0.09237993,-
 0.00344342,0.00218236,-0.00316786,0.00056997,0.00010499,0.00107522,0.0
 1130888,-0.01571088,-0.00853090,0.00903517,-0.00854610,-0.00642812,-0.
 06686403,0.08499604,0.09977915,0.00021488,-0.00032305,0.00031267,-0.00
 235349,-0.00391561,0.00131217,0.00059732,-0.00044682,-0.00001110,-0.00
 131646,0.00140818,-0.00027361,-0.00030696,-0.00106946,-0.00007611,0.00
 046946,0.00027516,-0.00013624,0.00011754,0.00033086,0.00022746,-0.0002
 8342,-0.00026990,-0.00007364,0.00065994,-0.00008448,-0.00043424,-0.000
 11688,-0.00006107,-0.00009551,0.00003004,0.00007265,0.00017138,0.00005
 760,0.00022523,0.00003416,0.00005171,-0.00005261,-0.00004775,0.0000062
 1,-0.00002073,-0.00005659,0.00005722,-0.00008503,0.00000435,-0.0010163
 8,0.00038021,-0.00132873,-0.00004491,0.00128851,0.00037314,0.00014842,
 -0.00014277,0.00005402,0.00032735,0.00029293,0.00025744,0.00010257,0.0
 0018977,-0.00005577,-0.00038082,-0.00104350,0.00002816,0.00000086,0.00
 020493,-0.00030341,0.00083950,0.00023403,0.00036287,-0.00044321,0.0003
 1031,-0.00026125,0.00002719,-0.00034300,-0.00023357,-0.00188951,-0.001
 12679,-0.00071131,0.00003906,-0.00007153,-0.00025013,0.00034813,-0.000
 33594,0.00002992,0.00049498,-0.00005497,0.00056712,0.00356206,-0.00078
 832,-0.00008125,-0.00061255,-0.00366125,-0.00571339,0.00093767,0.00057
 594,-0.00084549,0.00004452,0.00026119,-0.00124485,-0.00008517,-0.00036
 403,-0.00085383,-0.00004343,-0.00011262,-0.00001795,0.00016850,-0.0000
 5840,-0.00001179,-0.00026538,-0.00067478,0.00006727,-0.00032282,0.0006
 2780,0.00030072,0.00053438,-0.00030362,-0.00016772,-0.00023213,-0.0000
 5264,-0.00001842,-0.00007656,-0.00009751,-0.00011563,-0.00000635,-0.00
 004648,-0.00014585,-0.00005408,0.00004510,0.00005902,0.00011777,0.0000
 4895,0.00006390,0.00004621,-0.00018640,0.00038081,0.00028837,0.0020369
 6,-0.00273171,0.00020702,0.00006236,0.00001042,-0.00010732,-0.00026051
 ,-0.00024128,-0.00015040,0.00006631,-0.00115750,0.00029043,-0.00106016
 ,-0.00104023,0.00034924,-0.00016088,0.00020602,-0.00019982,0.00068914,
 -0.00610978,-0.00413877,0.00049180,-0.00096625,0.00028867,-0.00045539,
 -0.00102169,-0.00078200,-0.00034816,-0.00123401,-0.00017230,0.00014670
 ,-0.00014242,-0.00025215,-0.00047065,0.00020321,-0.00033654,-0.0001849
 5,-0.00024227,0.00021871,0.00423450,0.02281191,0.00007226,-0.00016882,
 0.00001289,0.00114477,0.00032240,0.00089755,-0.00009287,0.00050262,-0.
 00008894,-0.00082068,-0.00105269,-0.00196153,-0.00030819,-0.00040896,0
 .00006724,-0.00024088,-0.00003265,-0.00003964,0.00033380,-0.00000166,0
 .00013849,0.00023963,-0.00005412,0.00016217,-0.00039153,-0.00011797,0.
 00065129,0.00003436,0.00011615,-0.00010717,0.00018222,0.00008812,-0.00
 006001,-0.00017655,-0.00032444,0.00003523,-0.00005193,-0.00002353,0.00
 007237,-0.00006708,0.00007951,0.00016938,0.00004113,-0.00005009,0.0000
 3163,-0.00105567,0.00032847,-0.00090873,-0.00019263,0.00127102,0.00033
 993,-0.00000848,0.00021629,0.00015395,0.00021376,-0.00000089,0.0002681
 6,-0.00007152,0.00041494,0.00012058,0.00037403,-0.00015834,-0.00132636
 ,-0.00023754,-0.00058045,0.00045139,0.00051989,-0.00392859,-0.00317228
 ,-0.00034996,-0.00090504,0.00028810,-0.00028009,-0.00092422,-0.0003051
 4,-0.00026403,0.00104389,-0.00140679,0.00000297,0.00021265,0.00052002,
 -0.00007654,-0.00060121,-0.00033345,0.00091326,0.00039135,0.00017658,0
 .00061411,0.00434629,0.00515309\\0.00000062,-0.00000005,-0.00000001,-0
 .00000045,-0.00000100,-0.00000021,-0.00000063,-0.00000244,-0.00000052,
 -0.00000059,-0.00000019,-0.00000004,-0.00000002,-0.00000043,-0.0000000
 9,-0.00000059,-0.00000119,-0.00000025,-0.00000041,-0.00000101,-0.00000
 022,0.00000012,-0.00000126,-0.00000027,0.00000186,-0.00000084,-0.00000
 018,0.00000302,-0.00000002,-0.00000001,0.00000062,-0.00000067,-0.00000
 015,0.00000092,-0.00000054,-0.00000012,0.00000157,-0.00000030,-0.00000
 007,0.00000109,0.00000019,0.00000004,0.00000142,0.00000031,0.00000006,
 0.00000102,0.00000108,0.00000023,-0.00000015,0.00000177,0.00000038,0.0
 0000064,0.00000075,0.00000016,0.00000072,0.00000025,0.00000005,0.00000
 012,0.00000110,0.00000024,-0.00000043,0.00000084,0.00000018,-0.0000002
 2,0.00000046,0.00000010,-0.00000013,0.00000066,0.00000014,-0.00000056,
 -0.00000024,-0.00000005,0.00000025,0.00000059,0.00000013,-0.00000044,0
 .00000047,0.00000010,-0.00000037,0.00000019,0.00000004,0.00000011,-0.0
 0000036,-0.00000008,-0.00000060,-0.00000035,-0.00000007,-0.00000850,0.
 00000222,0.00000050\\\@


 KINETICS       FACT
 ---------  =  -------
 MECHANISM     FICTION
 Job cpu time:       0 days  2 hours  6 minutes 11.4 seconds.
 Elapsed time:       0 days  0 hours  2 minutes  4.4 seconds.
 File lengths (MBytes):  RWF=    334 Int=      0 D2E=      0 Chk=      8 Scr=      2
 Normal termination of Gaussian 16 at Thu May 11 05:55:11 2023.
