 Entering Gaussian System, Link 0=g16
 Input=3_ro_IRC_test.com
 Output=3_ro_IRC_test.log
 Initial command:
 /apps/applications/G16/g16.c01/l1.exe "/scratch/x2496a02/MOF_508/Gau-6221.inp" -scrdir="/scratch/x2496a02/MOF_508/"
 Default CPUs for threads: 0-39
 Default is to use a total of  40 processors:
                               40 via shared-memory
                                1 via Linda
 Entering Link 1 = /apps/applications/G16/g16.c01/l1.exe PID=      6222.
  
 Copyright (c) 1988-2019, Gaussian, Inc.  All Rights Reserved.
  
 This is part of the Gaussian(R) 16 program.  It is based on
 the Gaussian(R) 09 system (copyright 2009, Gaussian, Inc.),
 the Gaussian(R) 03 system (copyright 2003, Gaussian, Inc.),
 the Gaussian(R) 98 system (copyright 1998, Gaussian, Inc.),
 the Gaussian(R) 94 system (copyright 1995, Gaussian, Inc.),
 the Gaussian 92(TM) system (copyright 1992, Gaussian, Inc.),
 the Gaussian 90(TM) system (copyright 1990, Gaussian, Inc.),
 the Gaussian 88(TM) system (copyright 1988, Gaussian, Inc.),
 the Gaussian 86(TM) system (copyright 1986, Carnegie Mellon
 University), and the Gaussian 82(TM) system (copyright 1983,
 Carnegie Mellon University). Gaussian is a federally registered
 trademark of Gaussian, Inc.
  
 This software contains proprietary and confidential information,
 including trade secrets, belonging to Gaussian, Inc.
  
 This software is provided under written license and may be
 used, copied, transmitted, or stored only in accord with that
 written license.
  
 The following legend is applicable only to US Government
 contracts under FAR:
  
                    RESTRICTED RIGHTS LEGEND
  
 Use, reproduction and disclosure by the US Government is
 subject to restrictions as set forth in subparagraphs (a)
 and (c) of the Commercial Computer Software - Restricted
 Rights clause in FAR 52.227-19.
  
 Gaussian, Inc.
 340 Quinnipiac St., Bldg. 40, Wallingford CT 06492
  
  
 ---------------------------------------------------------------
 Warning -- This program may not be used in any manner that
 competes with the business of Gaussian, Inc. or will provide
 assistance to any competitor of Gaussian, Inc.  The licensee
 of this program is prohibited from giving any competitor of
 Gaussian, Inc. access to this program.  By using this program,
 the user acknowledges that Gaussian, Inc. is engaged in the
 business of creating and licensing software in the field of
 computational chemistry and represents and warrants to the
 licensee that it is not a competitor of Gaussian, Inc. and that
 it will not use this program in any manner prohibited above.
 ---------------------------------------------------------------
  

 Cite this work as:
 Gaussian 16, Revision C.01,
 M. J. Frisch, G. W. Trucks, H. B. Schlegel, G. E. Scuseria, 
 M. A. Robb, J. R. Cheeseman, G. Scalmani, V. Barone, 
 G. A. Petersson, H. Nakatsuji, X. Li, M. Caricato, A. V. Marenich, 
 J. Bloino, B. G. Janesko, R. Gomperts, B. Mennucci, H. P. Hratchian, 
 J. V. Ortiz, A. F. Izmaylov, J. L. Sonnenberg, D. Williams-Young, 
 F. Ding, F. Lipparini, F. Egidi, J. Goings, B. Peng, A. Petrone, 
 T. Henderson, D. Ranasinghe, V. G. Zakrzewski, J. Gao, N. Rega, 
 G. Zheng, W. Liang, M. Hada, M. Ehara, K. Toyota, R. Fukuda, 
 J. Hasegawa, M. Ishida, T. Nakajima, Y. Honda, O. Kitao, H. Nakai, 
 T. Vreven, K. Throssell, J. A. Montgomery, Jr., J. E. Peralta, 
 F. Ogliaro, M. J. Bearpark, J. J. Heyd, E. N. Brothers, K. N. Kudin, 
 V. N. Staroverov, T. A. Keith, R. Kobayashi, J. Normand, 
 K. Raghavachari, A. P. Rendell, J. C. Burant, S. S. Iyengar, 
 J. Tomasi, M. Cossi, J. M. Millam, M. Klene, C. Adamo, R. Cammi, 
 J. W. Ochterski, R. L. Martin, K. Morokuma, O. Farkas, 
 J. B. Foresman, and D. J. Fox, Gaussian, Inc., Wallingford CT, 2019.
 
 ******************************************
 Gaussian 16:  ES64L-G16RevC.01  3-Jul-2019
                27-Jun-2023 
 ******************************************
 %nprocshared=20
 Will use up to   20 processors via shared memory.
 %mem=20GB
 %chk=3_ro_IRC_test.chk
 Will use    4 GPUs:
 Thread  CPU   GPU
      0    0     0
      1   10     1
      2   11     2
      3   19     3
      4    1    -1
      5    2    -1
      6    3    -1
      7    4    -1
      8    5    -1
      9    6    -1
     10    7    -1
     11    8    -1
     12    9    -1
     13   12    -1
     14   13    -1
     15   14    -1
     16   15    -1
     17   16    -1
     18   17    -1
     19   18    -1
 SetGPE:  set environment variable "MP_BIND" = "yes"
 SetGPE:  set environment variable "MP_BLIST" = "0,10,11,19,1,2,3,4,5,6,7,8,9,12,13,14,15,16,17,18"
 Properties for Device   0
 Minimum vector length:                              32
 Maximum vector length:                            1024
 Number of SMPs:                                     80
 Maximum number of threads per SMP:                2048
 Number of ASync Engines:                             7
 Memory:                                           3193921536
 Properties for Device   1
 Minimum vector length:                              32
 Maximum vector length:                            1024
 Number of SMPs:                                     80
 Maximum number of threads per SMP:                2048
 Number of ASync Engines:                             7
 Memory:                                           3201261568
 Properties for Device   2
 Minimum vector length:                              32
 Maximum vector length:                            1024
 Number of SMPs:                                     80
 Maximum number of threads per SMP:                2048
 Number of ASync Engines:                             7
 Memory:                                           3201261568
 Properties for Device   3
 Minimum vector length:                              32
 Maximum vector length:                            1024
 Number of SMPs:                                     80
 Maximum number of threads per SMP:                2048
 Number of ASync Engines:                             7
 Memory:                                           3201261568
   2874529382 words of memory will be used on each GPU.
 ----------------------------------------------------------------------
 # opt=(calcall,tight,qst3,cartesian) freq b3lyp/gen nosymm scf=(qc,max
 cycle=1024) pseudo=read
 ----------------------------------------------------------------------
 1/5=1,7=10,10=4,18=20,26=3,27=203,38=1/1,3;
 2/9=110,12=2,15=1,17=6,18=5,40=1/2;
 3/5=7,11=2,16=1,17=8,25=1,30=1,71=2,74=-5,140=1/1,2,3;
 4//1;
 5/5=2,7=1024,8=3,38=5/8;
 8/6=4,10=90,11=11/1;
 11/6=1,8=1,9=11,15=111,16=1,31=1/1,2,10;
 10/6=1,31=1/2;
 6/7=2,8=2,9=2,10=2,18=1,28=1/1;
 7/10=1,25=1,30=1/1,2,3,16;
 1/5=1,7=10,10=4,18=20,26=3,27=203/3(3);
 2/9=110,15=1/2;
 7/8=1,9=1,25=1,30=1,44=-1/16;
 99//99;
 2/9=110,15=1/2;
 3/5=7,6=1,11=2,16=1,17=8,25=1,30=1,71=2,74=-5,82=7,140=1/1,2,3;
 4/5=5,16=3,69=1/1;
 5/5=2,7=1024,8=3,38=5/8;
 8/6=4,10=90,11=11/1;
 11/6=1,8=1,9=11,15=111,16=1,31=1/1,2,10;
 10/6=1,31=1/2;
 7/10=1,25=1,30=1/1,2,3,16;
 1/5=1,7=10,10=4,18=20,26=3,27=203/3(-8);
 2/9=110,15=1/2;
 6/7=2,8=2,9=2,10=2,18=1,19=2,28=1/1;
 7/8=1,9=1,25=1,30=1,44=-1/16;
 99//99;
 -------------------
 2_opt_freq_from_IRC
 -------------------
 Symbolic Z-matrix:
 Charge =  0 Multiplicity = 1
 Zn                   -1   -4.69449  -2.52891   2.32632 
 O                    -1   -4.60002  -0.93173   3.63136 
 O                    0    -2.34252  -0.87474   3.5411 
 O                    -1   -3.7714   -1.27973   0.82823 
 O                    0    -1.52369  -1.12054   0.67927 
 C                    -1   -3.46123  -0.46882   3.94274 
 C                    -1   -2.70354  -0.84264   0.32124 
 Zn                   0    -1.42258  -2.383     2.25532 
 O                    0    -2.28232  -3.9866    0.97873 
 O                    -1   -4.53935  -4.11556   1.01425 
 O                    0    -1.33233  -3.67022   3.8025 
 O                    -1   -3.59321  -3.69443   3.77059 
 C                    -1   -3.3849   -4.48478   0.64137 
 C                    -1   -2.46758  -4.0416    4.21874 
 H                    -1   -3.45541   0.38383   4.64232 
 H                    -1   -2.79074  -0.14615  -0.52756 
 H                    -1   -3.34703  -5.33554  -0.0595 
 H                    -1   -2.45197  -4.74051   5.06989 
 C                    -1   -7.53384  -1.75151   3.14439 
 C                    -1   -8.92519  -1.77977   3.20973 
 C                    -1   -9.61549  -2.73787   2.46521 
 C                    -1   -8.88946  -3.63544   1.68034 
 C                    -1   -7.49932  -3.5449    1.66652 
 N                    -1   -6.83449  -2.61908   2.38606 
 H                    -1   -10.70019  -2.78423   2.49611 
 H                    -1   -6.94295  -1.03037   3.70008 
 H                    -1   -9.44925  -1.06304   3.8329 
 H                    -1   -9.38507  -4.39575   1.08621 
 H                    -1   -6.88162  -4.21449   1.07654 
 C                    0     2.60631   3.45824   3.43349 
 C                    0     3.04306   2.37037   2.7914 
 C                    0     2.3262    1.69871   1.66083 
 O                    0     2.18283   0.3082    1.97917 
 C                    0     1.75606  -0.45899   0.85844 
 C                    0     1.85421  -1.91158   1.22174 
 C                    0     1.13624  -2.94976   0.47528 
 O                    0     0.70067  -2.60834   1.81848 
 H                    0     3.18993   3.93091   4.21936 
 H                    0     1.65042   3.91701   3.18833 
 H                    0     3.99998   1.92455   3.06225 
 H                    0     2.90355   1.80248   0.72676 
 H                    0     1.33488   2.15455   1.50536 
 H                    0     2.4166   -0.27107  -0.00567 
 H                    0     0.72545  -0.20979   0.57183 
 H                    0     2.77328  -2.19357   1.73237 
 H                    0     1.55172  -3.95114   0.39039 
 H                    0     0.44006  -2.64946  -0.30424 
 N                    -1    9.32365   7.87859  -9.41833 
 C                    -1    8.77519   8.66629  -10.62748 
 C                    -1    7.27043   8.62289  -10.87255 
 H                    -1    9.31304   8.2707   -11.50121 
 H                    -1    9.07822   9.7019   -10.45098 
 H                    -1    7.10358   9.15702  -11.81342 
 H                    -1    6.88374   7.6137   -11.01372 
 H                    -1    6.68334   9.12889  -10.10025 
 C                    -1    8.3918    8.04929  -8.23166 
 C                    -1    8.83977   7.40494  -6.92222 
 H                    -1    7.42815   7.64083  -8.53166 
 H                    -1    8.26601   9.12853  -8.10365 
 H                    -1    8.06075   7.5952   -6.17719 
 H                    -1    8.95072   6.32106  -7.00604 
 H                    -1    9.77023   7.82471  -6.53281 
 C                    -1    10.68837   8.48329  -9.05489 
 C                    -1    11.65487   8.71425  -10.21454 
 H                    -1    11.12876   7.80114  -8.32636 
 H                    -1    10.46651   9.42567  -8.54406 
 H                    -1    12.64171   8.90747  -9.78094 
 H                    -1    11.73079   7.86425  -10.89914 
 H                    -1    11.37934   9.58313  -10.81558 
 C                    -1    9.55968   6.39601  -9.75557 
 C                    -1    8.33127   5.54396  -10.04222 
 H                    -1    10.11973   5.99722  -8.90738 
 H                    -1    10.18644   6.39166  -10.65626 
 H                    -1    8.68431   4.51032  -10.11399 
 H                    -1    7.56308   5.57545  -9.26272 
 H                    -1    7.89699   5.78487  -11.01342 
 Br                   0     4.05954   1.36301  -1.88757 
 
 Add virtual bond connecting atoms Br77       and H41        Dist= 5.47D+00.
 Add virtual bond connecting atoms Br77       and H43        Dist= 5.64D+00.
 Add virtual bond connecting atoms Br77       and H60        Dist= 1.62D+01.
 Add virtual bond connecting atoms Br77       and H61        Dist= 1.63D+01.
 ------------------------
 4_test_opt_freq_from_IRC
 ------------------------
 Symbolic Z-matrix:
 Charge =  0 Multiplicity = 1
 Zn                   -1   -4.69449  -2.52891   2.32632 
 O                    -1   -4.60002  -0.93173   3.63136 
 O                    0    -2.34244  -0.85659   3.54087 
 O                    -1   -3.7714   -1.27973   0.82823 
 O                    0    -1.52212  -1.10684   0.66989 
 C                    -1   -3.46123  -0.46882   3.94274 
 C                    -1   -2.70354  -0.84264   0.32124 
 Zn                   0    -1.14467  -2.43147   2.22343 
 O                    0    -2.28252  -3.99325   0.96886 
 O                    -1   -4.53935  -4.11556   1.01425 
 O                    0    -1.33169  -3.69329   3.80435 
 O                    -1   -3.59321  -3.69443   3.77059 
 C                    -1   -3.3849   -4.48478   0.64137 
 C                    -1   -2.46758  -4.0416    4.21874 
 H                    -1   -3.45541   0.38383   4.64232 
 H                    -1   -2.79074  -0.14615  -0.52756 
 H                    -1   -3.34703  -5.33554  -0.0595 
 H                    -1   -2.45197  -4.74051   5.06989 
 C                    -1   -7.53384  -1.75151   3.14439 
 C                    -1   -8.92519  -1.77977   3.20973 
 C                    -1   -9.61549  -2.73787   2.46521 
 C                    -1   -8.88946  -3.63544   1.68034 
 C                    -1   -7.49932  -3.5449    1.66652 
 N                    -1   -6.83449  -2.61908   2.38606 
 H                    -1   -10.70019  -2.78423   2.49611 
 H                    -1   -6.94295  -1.03037   3.70008 
 H                    -1   -9.44925  -1.06304   3.8329 
 H                    -1   -9.38507  -4.39575   1.08621 
 H                    -1   -6.88162  -4.21449   1.07654 
 C                    0     0.53259   1.38078   6.64039 
 C                    0     1.30661   1.36874   5.55127 
 C                    0     0.80599   1.16534   4.15025 
 O                    0     1.59587   0.17418   3.51882 
 C                    0     1.30166   0.0275    2.12719 
 C                    0     1.67277  -1.39421   1.68375 
 C                    0     1.64972  -1.53759   0.15423 
 O                    0     0.81494  -2.37128   2.1453 
 H                    0     0.94373   1.55938   7.63077 
 H                    0    -0.53753   1.19636   6.57734 
 H                    0     2.38207   1.52366   5.64292 
 H                    0     0.89146   2.12216   3.59724 
 H                    0    -0.25472   0.87161   4.15007 
 H                    0     1.86876   0.78275   1.5588 
 H                    0     0.2303    0.18328   1.94421 
 H                    0     2.70335  -1.58406   2.03986 
 H                    0     1.89785  -2.55748  -0.1285 
 H                    0     0.70083  -1.22413  -0.27715 
 N                    -1    9.32365   7.87859  -9.41833 
 C                    -1    8.77519   8.66629  -10.62748 
 C                    -1    7.27043   8.62289  -10.87255 
 H                    -1    9.31304   8.2707   -11.50121 
 H                    -1    9.07822   9.7019   -10.45098 
 H                    -1    7.10358   9.15702  -11.81342 
 H                    -1    6.88374   7.6137   -11.01372 
 H                    -1    6.68334   9.12889  -10.10025 
 C                    -1    8.3918    8.04929  -8.23166 
 C                    -1    8.83977   7.40494  -6.92222 
 H                    -1    7.42815   7.64083  -8.53166 
 H                    -1    8.26601   9.12853  -8.10365 
 H                    -1    8.06075   7.5952   -6.17719 
 H                    -1    8.95072   6.32106  -7.00604 
 H                    -1    9.77023   7.82471  -6.53281 
 C                    -1    10.68837   8.48329  -9.05489 
 C                    -1    11.65487   8.71425  -10.21454 
 H                    -1    11.12876   7.80114  -8.32636 
 H                    -1    10.46651   9.42567  -8.54406 
 H                    -1    12.64171   8.90747  -9.78094 
 H                    -1    11.73079   7.86425  -10.89914 
 H                    -1    11.37934   9.58313  -10.81558 
 C                    -1    9.55968   6.39601  -9.75557 
 C                    -1    8.33127   5.54396  -10.04222 
 H                    -1    10.11973   5.99722  -8.90738 
 H                    -1    10.18644   6.39166  -10.65626 
 H                    -1    8.68431   4.51032  -10.11399 
 H                    -1    7.56308   5.57545  -9.26272 
 H                    -1    7.89699   5.78487  -11.01342 
 Br                   0     3.05487  -0.42357  -0.85048 
 
 Add virtual bond connecting atoms Br77       and H60        Dist= 2.05D+01.
 Add virtual bond connecting atoms Br77       and H61        Dist= 2.05D+01.
 -------------
 3_ro_IRC_test
 -------------
 Symbolic Z-matrix:
 Charge =  0 Multiplicity = 1
 Zn                   -1   -1.45149  -0.05762   0.03912 
 O                    -1   -1.35702   1.53955   1.34416 
 O                    0     0.90039   1.6096    1.25054 
 O                    -1   -0.5284    1.19155  -1.45897 
 O                    0     1.71918   1.36511  -1.60588 
 C                    -1   -0.21823   2.00247   1.65554 
 C                    -1    0.53946   1.62865  -1.96596 
 Zn                   0     1.97635   0.03513  -0.07284 
 O                    0     0.96108  -1.52083  -1.31289 
 O                    -1   -1.29636  -1.64427  -1.27295 
 O                    0     1.91115  -1.21399   1.51524 
 O                    -1   -0.35021  -1.22314   1.48339 
 C                    -1   -0.14191  -2.01349  -1.64583 
 C                    -1    0.77542  -1.57032   1.93154 
 H                    -1   -0.21241   2.85512   2.35512 
 H                    -1    0.45226   2.32513  -2.81476 
 H                    -1   -0.10404  -2.86425  -2.3467 
 H                    -1    0.79103  -2.26922   2.78269 
 C                    -1   -4.29085   0.71977   0.85719 
 C                    -1   -5.68219   0.69152   0.92253 
 C                    -1   -6.37249  -0.26658   0.17801 
 C                    -1   -5.64646  -1.16416  -0.60686 
 C                    -1   -4.25632  -1.07361  -0.62068 
 N                    -1   -3.59149  -0.1478    0.09886 
 H                    -1   -7.45719  -0.31294   0.20891 
 H                    -1   -3.69995   1.44092   1.41288 
 H                    -1   -6.20625   1.40825   1.5457 
 H                    -1   -6.14207  -1.92446  -1.20099 
 H                    -1   -3.63862  -1.74321  -1.21066 
 C                    0     3.27534   3.71028   4.6347 
 C                    0     4.19352   3.601     3.67047 
 C                    0     3.88593   3.55407   2.20204 
 O                    0     4.57173   2.45599   1.62276 
 C                    0     4.50149   2.45192   0.19664 
 C                    0     4.95499   1.09678  -0.29929 
 C                    0     4.83493   0.81308  -1.72723 
 O                    0     4.01091   0.03643  -0.28025 
 H                    0     3.5539    3.76966   5.68354 
 H                    0     2.212     3.73226   4.40637 
 H                    0     5.25224   3.55247   3.9254 
 H                    0     4.22813   4.49446   1.72942 
 H                    0     2.80304   3.46113   2.02988 
 H                    0     5.16346   3.22396  -0.22451 
 H                    0     3.47458   2.6471   -0.14179 
 H                    0     5.90399   0.8095    0.1659 
 H                    0     5.39075  -0.01082  -2.1438 
 H                    0     4.009     1.23527  -2.27844 
 N                    -1    12.56665   10.34988  -11.70553 
 C                    -1    12.01819   11.13758  -12.91468 
 C                    -1    10.51343   11.09417  -13.15975 
 H                    -1    12.55604   10.74199  -13.78841 
 H                    -1    12.32122   12.17319  -12.73818 
 H                    -1    10.34657   11.6283  -14.10062 
 H                    -1    10.12674   10.08499  -13.30092 
 H                    -1    9.92634   11.60018  -12.38745 
 C                    -1    11.6348   10.52058  -10.51886 
 C                    -1    12.08277   9.87622  -9.20941 
 H                    -1    10.67115   10.11212  -10.81885 
 H                    -1    11.509    11.59982  -10.39084 
 H                    -1    11.30374   10.06648  -8.46439 
 H                    -1    12.19372   8.79234  -9.29324 
 H                    -1    13.01323   10.296   -8.82001 
 C                    -1    13.93137   10.95457  -11.34209 
 C                    -1    14.89787   11.18554  -12.50174 
 H                    -1    14.37175   10.27242  -10.61356 
 H                    -1    13.70951   11.89696  -10.83126 
 H                    -1    15.88471   11.37876  -12.06814 
 H                    -1    14.97379   10.33553  -13.18634 
 H                    -1    14.62234   12.05441  -13.10278 
 C                    -1    12.80268   8.86729  -12.04277 
 C                    -1    11.57427   8.01524  -12.32942 
 H                    -1    13.36272   8.46851  -11.19458 
 H                    -1    13.42944   8.86294  -12.94346 
 H                    -1    11.9273   6.98161  -12.40119 
 H                    -1    10.80608   8.04674  -11.54992 
 H                    -1    11.13999   8.25616  -13.30062 
 Br                   0     6.47579   2.4138   -3.05498 
 

 GradGradGradGradGradGradGradGradGradGradGradGradGradGradGradGradGradGrad
 Berny optimization.
 Initialization pass.
                           ----------------------------
                           !    Initial Parameters    !
                           ! (Angstroms and Degrees)  !
 --------------------------                            --------------------------
 ! Name  Definition         TS        Reactant Product Derivative Info.         !
 --------------------------------------------------------------------------------
 ! X1    R(1,-1)           -1.4515   -4.6945   -4.6945 frozen, calculate D2E/DX2!
 ! Y1    R(1,-2)           -0.0576   -2.5289   -2.5289 frozen, calculate D2E/DX2!
 ! Z1    R(1,-3)            0.0391    2.3263    2.3263 frozen, calculate D2E/DX2!
 ! X2    R(2,-1)           -1.357    -4.6      -4.6    frozen, calculate D2E/DX2!
 ! Y2    R(2,-2)            1.5396   -0.9317   -0.9317 frozen, calculate D2E/DX2!
 ! Z2    R(2,-3)            1.3442    3.6314    3.6314 frozen, calculate D2E/DX2!
 ! X4    R(4,-1)           -0.5284   -3.7714   -3.7714 frozen, calculate D2E/DX2!
 ! Y4    R(4,-2)            1.1916   -1.2797   -1.2797 frozen, calculate D2E/DX2!
 ! Z4    R(4,-3)           -1.459     0.8282    0.8282 frozen, calculate D2E/DX2!
 ! X6    R(6,-1)           -0.2182   -3.4612   -3.4612 frozen, calculate D2E/DX2!
 ! Y6    R(6,-2)            2.0025   -0.4688   -0.4688 frozen, calculate D2E/DX2!
 ! Z6    R(6,-3)            1.6555    3.9427    3.9427 frozen, calculate D2E/DX2!
 ! X7    R(7,-1)            0.5395   -2.7035   -2.7035 frozen, calculate D2E/DX2!
 ! Y7    R(7,-2)            1.6286   -0.8426   -0.8426 frozen, calculate D2E/DX2!
 ! Z7    R(7,-3)           -1.966     0.3212    0.3212 frozen, calculate D2E/DX2!
 ! X10   R(10,-1)          -1.2964   -4.5394   -4.5394 frozen, calculate D2E/DX2!
 ! Y10   R(10,-2)          -1.6443   -4.1156   -4.1156 frozen, calculate D2E/DX2!
 ! Z10   R(10,-3)          -1.273     1.0142    1.0142 frozen, calculate D2E/DX2!
 ! X12   R(12,-1)          -0.3502   -3.5932   -3.5932 frozen, calculate D2E/DX2!
 ! Y12   R(12,-2)          -1.2231   -3.6944   -3.6944 frozen, calculate D2E/DX2!
 ! Z12   R(12,-3)           1.4834    3.7706    3.7706 frozen, calculate D2E/DX2!
 ! X13   R(13,-1)          -0.1419   -3.3849   -3.3849 frozen, calculate D2E/DX2!
 ! Y13   R(13,-2)          -2.0135   -4.4848   -4.4848 frozen, calculate D2E/DX2!
 ! Z13   R(13,-3)          -1.6458    0.6414    0.6414 frozen, calculate D2E/DX2!
 ! X14   R(14,-1)           0.7754   -2.4676   -2.4676 frozen, calculate D2E/DX2!
 ! Y14   R(14,-2)          -1.5703   -4.0416   -4.0416 frozen, calculate D2E/DX2!
 ! Z14   R(14,-3)           1.9315    4.2187    4.2187 frozen, calculate D2E/DX2!
 ! X15   R(15,-1)          -0.2124   -3.4554   -3.4554 frozen, calculate D2E/DX2!
 ! Y15   R(15,-2)           2.8551    0.3838    0.3838 frozen, calculate D2E/DX2!
 ! Z15   R(15,-3)           2.3551    4.6423    4.6423 frozen, calculate D2E/DX2!
 ! X16   R(16,-1)           0.4523   -2.7907   -2.7907 frozen, calculate D2E/DX2!
 ! Y16   R(16,-2)           2.3251   -0.1462   -0.1462 frozen, calculate D2E/DX2!
 ! Z16   R(16,-3)          -2.8148   -0.5276   -0.5276 frozen, calculate D2E/DX2!
 ! X17   R(17,-1)          -0.104    -3.347    -3.347  frozen, calculate D2E/DX2!
 ! Y17   R(17,-2)          -2.8642   -5.3355   -5.3355 frozen, calculate D2E/DX2!
 ! Z17   R(17,-3)          -2.3467   -0.0595   -0.0595 frozen, calculate D2E/DX2!
 ! X18   R(18,-1)           0.791    -2.452    -2.452  frozen, calculate D2E/DX2!
 ! Y18   R(18,-2)          -2.2692   -4.7405   -4.7405 frozen, calculate D2E/DX2!
 ! Z18   R(18,-3)           2.7827    5.0699    5.0699 frozen, calculate D2E/DX2!
 ! X19   R(19,-1)          -4.2908   -7.5338   -7.5338 frozen, calculate D2E/DX2!
 ! Y19   R(19,-2)           0.7198   -1.7515   -1.7515 frozen, calculate D2E/DX2!
 ! Z19   R(19,-3)           0.8572    3.1444    3.1444 frozen, calculate D2E/DX2!
 ! X20   R(20,-1)          -5.6822   -8.9252   -8.9252 frozen, calculate D2E/DX2!
 ! Y20   R(20,-2)           0.6915   -1.7798   -1.7798 frozen, calculate D2E/DX2!
 ! Z20   R(20,-3)           0.9225    3.2097    3.2097 frozen, calculate D2E/DX2!
 ! X21   R(21,-1)          -6.3725   -9.6155   -9.6155 frozen, calculate D2E/DX2!
 ! Y21   R(21,-2)          -0.2666   -2.7379   -2.7379 frozen, calculate D2E/DX2!
 ! Z21   R(21,-3)           0.178     2.4652    2.4652 frozen, calculate D2E/DX2!
 ! X22   R(22,-1)          -5.6465   -8.8895   -8.8895 frozen, calculate D2E/DX2!
 ! Y22   R(22,-2)          -1.1642   -3.6354   -3.6354 frozen, calculate D2E/DX2!
 ! Z22   R(22,-3)          -0.6069    1.6803    1.6803 frozen, calculate D2E/DX2!
 ! X23   R(23,-1)          -4.2563   -7.4993   -7.4993 frozen, calculate D2E/DX2!
 ! Y23   R(23,-2)          -1.0736   -3.5449   -3.5449 frozen, calculate D2E/DX2!
 ! Z23   R(23,-3)          -0.6207    1.6665    1.6665 frozen, calculate D2E/DX2!
 ! X24   R(24,-1)          -3.5915   -6.8345   -6.8345 frozen, calculate D2E/DX2!
 ! Y24   R(24,-2)          -0.1478   -2.6191   -2.6191 frozen, calculate D2E/DX2!
 ! Z24   R(24,-3)           0.0989    2.3861    2.3861 frozen, calculate D2E/DX2!
 ! X25   R(25,-1)          -7.4572  -10.7002  -10.7002 frozen, calculate D2E/DX2!
 ! Y25   R(25,-2)          -0.3129   -2.7842   -2.7842 frozen, calculate D2E/DX2!
 ! Z25   R(25,-3)           0.2089    2.4961    2.4961 frozen, calculate D2E/DX2!
 ! X26   R(26,-1)          -3.7      -6.9429   -6.9429 frozen, calculate D2E/DX2!
 ! Y26   R(26,-2)           1.4409   -1.0304   -1.0304 frozen, calculate D2E/DX2!
 ! Z26   R(26,-3)           1.4129    3.7001    3.7001 frozen, calculate D2E/DX2!
 ! X27   R(27,-1)          -6.2062   -9.4492   -9.4492 frozen, calculate D2E/DX2!
 ! Y27   R(27,-2)           1.4082   -1.063    -1.063  frozen, calculate D2E/DX2!
 ! Z27   R(27,-3)           1.5457    3.8329    3.8329 frozen, calculate D2E/DX2!
 ! X28   R(28,-1)          -6.1421   -9.3851   -9.3851 frozen, calculate D2E/DX2!
 ! Y28   R(28,-2)          -1.9245   -4.3958   -4.3958 frozen, calculate D2E/DX2!
 ! Z28   R(28,-3)          -1.201     1.0862    1.0862 frozen, calculate D2E/DX2!
 ! X29   R(29,-1)          -3.6386   -6.8816   -6.8816 frozen, calculate D2E/DX2!
 ! Y29   R(29,-2)          -1.7432   -4.2145   -4.2145 frozen, calculate D2E/DX2!
 ! Z29   R(29,-3)          -1.2107    1.0765    1.0765 frozen, calculate D2E/DX2!
 ! X48   R(48,-1)          12.5667    9.3237    9.3237 frozen, calculate D2E/DX2!
 ! Y48   R(48,-2)          10.3499    7.8786    7.8786 frozen, calculate D2E/DX2!
 ! Z48   R(48,-3)         -11.7055   -9.4183   -9.4183 frozen, calculate D2E/DX2!
 ! X49   R(49,-1)          12.0182    8.7752    8.7752 frozen, calculate D2E/DX2!
 ! Y49   R(49,-2)          11.1376    8.6663    8.6663 frozen, calculate D2E/DX2!
 ! Z49   R(49,-3)         -12.9147  -10.6275  -10.6275 frozen, calculate D2E/DX2!
 ! X50   R(50,-1)          10.5134    7.2704    7.2704 frozen, calculate D2E/DX2!
 ! Y50   R(50,-2)          11.0942    8.6229    8.6229 frozen, calculate D2E/DX2!
 ! Z50   R(50,-3)         -13.1598  -10.8726  -10.8726 frozen, calculate D2E/DX2!
 ! X51   R(51,-1)          12.556     9.313     9.313  frozen, calculate D2E/DX2!
 ! Y51   R(51,-2)          10.742     8.2707    8.2707 frozen, calculate D2E/DX2!
 ! Z51   R(51,-3)         -13.7884  -11.5012  -11.5012 frozen, calculate D2E/DX2!
 ! X52   R(52,-1)          12.3212    9.0782    9.0782 frozen, calculate D2E/DX2!
 ! Y52   R(52,-2)          12.1732    9.7019    9.7019 frozen, calculate D2E/DX2!
 ! Z52   R(52,-3)         -12.7382  -10.451   -10.451  frozen, calculate D2E/DX2!
 ! X53   R(53,-1)          10.3466    7.1036    7.1036 frozen, calculate D2E/DX2!
 ! Y53   R(53,-2)          11.6283    9.157     9.157  frozen, calculate D2E/DX2!
 ! Z53   R(53,-3)         -14.1006  -11.8134  -11.8134 frozen, calculate D2E/DX2!
 ! X54   R(54,-1)          10.1267    6.8837    6.8837 frozen, calculate D2E/DX2!
 ! Y54   R(54,-2)          10.085     7.6137    7.6137 frozen, calculate D2E/DX2!
 ! Z54   R(54,-3)         -13.3009  -11.0137  -11.0137 frozen, calculate D2E/DX2!
 ! X55   R(55,-1)           9.9263    6.6833    6.6833 frozen, calculate D2E/DX2!
 ! Y55   R(55,-2)          11.6002    9.1289    9.1289 frozen, calculate D2E/DX2!
 ! Z55   R(55,-3)         -12.3874  -10.1002  -10.1002 frozen, calculate D2E/DX2!
 ! X56   R(56,-1)          11.6348    8.3918    8.3918 frozen, calculate D2E/DX2!
 ! Y56   R(56,-2)          10.5206    8.0493    8.0493 frozen, calculate D2E/DX2!
 ! Z56   R(56,-3)         -10.5189   -8.2317   -8.2317 frozen, calculate D2E/DX2!
 ! X57   R(57,-1)          12.0828    8.8398    8.8398 frozen, calculate D2E/DX2!
 ! Y57   R(57,-2)           9.8762    7.4049    7.4049 frozen, calculate D2E/DX2!
 ! Z57   R(57,-3)          -9.2094   -6.9222   -6.9222 frozen, calculate D2E/DX2!
 ! X58   R(58,-1)          10.6711    7.4282    7.4282 frozen, calculate D2E/DX2!
 ! Y58   R(58,-2)          10.1121    7.6408    7.6408 frozen, calculate D2E/DX2!
 ! Z58   R(58,-3)         -10.8189   -8.5317   -8.5317 frozen, calculate D2E/DX2!
 ! X59   R(59,-1)          11.509     8.266     8.266  frozen, calculate D2E/DX2!
 ! Y59   R(59,-2)          11.5998    9.1285    9.1285 frozen, calculate D2E/DX2!
 ! Z59   R(59,-3)         -10.3908   -8.1036   -8.1036 frozen, calculate D2E/DX2!
 ! X60   R(60,-1)          11.3037    8.0607    8.0607 frozen, calculate D2E/DX2!
 ! Y60   R(60,-2)          10.0665    7.5952    7.5952 frozen, calculate D2E/DX2!
 ! Z60   R(60,-3)          -8.4644   -6.1772   -6.1772 frozen, calculate D2E/DX2!
 ! X61   R(61,-1)          12.1937    8.9507    8.9507 frozen, calculate D2E/DX2!
 ! Y61   R(61,-2)           8.7923    6.3211    6.3211 frozen, calculate D2E/DX2!
 ! Z61   R(61,-3)          -9.2932   -7.006    -7.006  frozen, calculate D2E/DX2!
 ! X62   R(62,-1)          13.0132    9.7702    9.7702 frozen, calculate D2E/DX2!
 ! Y62   R(62,-2)          10.296     7.8247    7.8247 frozen, calculate D2E/DX2!
 ! Z62   R(62,-3)          -8.82     -6.5328   -6.5328 frozen, calculate D2E/DX2!
 ! X63   R(63,-1)          13.9314   10.6884   10.6884 frozen, calculate D2E/DX2!
 ! Y63   R(63,-2)          10.9546    8.4833    8.4833 frozen, calculate D2E/DX2!
 ! Z63   R(63,-3)         -11.3421   -9.0549   -9.0549 frozen, calculate D2E/DX2!
 ! X64   R(64,-1)          14.8979   11.6549   11.6549 frozen, calculate D2E/DX2!
 ! Y64   R(64,-2)          11.1855    8.7143    8.7143 frozen, calculate D2E/DX2!
 ! Z64   R(64,-3)         -12.5017  -10.2145  -10.2145 frozen, calculate D2E/DX2!
 ! X65   R(65,-1)          14.3718   11.1288   11.1288 frozen, calculate D2E/DX2!
 ! Y65   R(65,-2)          10.2724    7.8011    7.8011 frozen, calculate D2E/DX2!
 ! Z65   R(65,-3)         -10.6136   -8.3264   -8.3264 frozen, calculate D2E/DX2!
 ! X66   R(66,-1)          13.7095   10.4665   10.4665 frozen, calculate D2E/DX2!
 ! Y66   R(66,-2)          11.897     9.4257    9.4257 frozen, calculate D2E/DX2!
 ! Z66   R(66,-3)         -10.8313   -8.5441   -8.5441 frozen, calculate D2E/DX2!
 ! X67   R(67,-1)          15.8847   12.6417   12.6417 frozen, calculate D2E/DX2!
 ! Y67   R(67,-2)          11.3788    8.9075    8.9075 frozen, calculate D2E/DX2!
 ! Z67   R(67,-3)         -12.0681   -9.7809   -9.7809 frozen, calculate D2E/DX2!
 ! X68   R(68,-1)          14.9738   11.7308   11.7308 frozen, calculate D2E/DX2!
 ! Y68   R(68,-2)          10.3355    7.8642    7.8642 frozen, calculate D2E/DX2!
 ! Z68   R(68,-3)         -13.1863  -10.8991  -10.8991 frozen, calculate D2E/DX2!
 ! X69   R(69,-1)          14.6223   11.3793   11.3793 frozen, calculate D2E/DX2!
 ! Y69   R(69,-2)          12.0544    9.5831    9.5831 frozen, calculate D2E/DX2!
 ! Z69   R(69,-3)         -13.1028  -10.8156  -10.8156 frozen, calculate D2E/DX2!
 ! X70   R(70,-1)          12.8027    9.5597    9.5597 frozen, calculate D2E/DX2!
 ! Y70   R(70,-2)           8.8673    6.396     6.396  frozen, calculate D2E/DX2!
 ! Z70   R(70,-3)         -12.0428   -9.7556   -9.7556 frozen, calculate D2E/DX2!
 ! X71   R(71,-1)          11.5743    8.3313    8.3313 frozen, calculate D2E/DX2!
 ! Y71   R(71,-2)           8.0152    5.544     5.544  frozen, calculate D2E/DX2!
 ! Z71   R(71,-3)         -12.3294  -10.0422  -10.0422 frozen, calculate D2E/DX2!
 ! X72   R(72,-1)          13.3627   10.1197   10.1197 frozen, calculate D2E/DX2!
 ! Y72   R(72,-2)           8.4685    5.9972    5.9972 frozen, calculate D2E/DX2!
 ! Z72   R(72,-3)         -11.1946   -8.9074   -8.9074 frozen, calculate D2E/DX2!
 ! X73   R(73,-1)          13.4294   10.1864   10.1864 frozen, calculate D2E/DX2!
 ! Y73   R(73,-2)           8.8629    6.3917    6.3917 frozen, calculate D2E/DX2!
 ! Z73   R(73,-3)         -12.9435  -10.6563  -10.6563 frozen, calculate D2E/DX2!
 ! X74   R(74,-1)          11.9273    8.6843    8.6843 frozen, calculate D2E/DX2!
 ! Y74   R(74,-2)           6.9816    4.5103    4.5103 frozen, calculate D2E/DX2!
 ! Z74   R(74,-3)         -12.4012  -10.114   -10.114  frozen, calculate D2E/DX2!
 ! X75   R(75,-1)          10.8061    7.5631    7.5631 frozen, calculate D2E/DX2!
 ! Y75   R(75,-2)           8.0467    5.5755    5.5755 frozen, calculate D2E/DX2!
 ! Z75   R(75,-3)         -11.5499   -9.2627   -9.2627 frozen, calculate D2E/DX2!
 ! X76   R(76,-1)          11.14      7.897     7.897  frozen, calculate D2E/DX2!
 ! Y76   R(76,-2)           8.2562    5.7849    5.7849 frozen, calculate D2E/DX2!
 ! Z76   R(76,-3)         -13.3006  -11.0134  -11.0134 frozen, calculate D2E/DX2!
 ! R1    R(3,6)             1.2529    1.256     1.2504 calculate D2E/DX2 analyti!
 ! R2    R(3,8)             2.3212    2.185     2.3771 calculate D2E/DX2 analyti!
 ! R3    R(5,7)             1.2613    1.2639    1.2598 calculate D2E/DX2 analyti!
 ! R4    R(5,8)             2.0458    2.0219    2.0762 calculate D2E/DX2 analyti!
 ! R5    R(8,11)            2.0215    2.0147    2.0314 calculate D2E/DX2 analyti!
 ! R6    R(8,37)            2.0451    2.1794    1.9621 calculate D2E/DX2 analyti!
 ! R7    R(9,13)            1.2531    1.2561    1.2506 calculate D2E/DX2 analyti!
 ! R8    R(11,14)           1.261     1.2649    1.2583 calculate D2E/DX2 analyti!
 ! R9    R(30,31)           1.3359    1.3366    1.3362 calculate D2E/DX2 analyti!
 ! R10   R(30,38)           1.0868    1.087     1.0871 calculate D2E/DX2 analyti!
 ! R11   R(30,39)           1.0878    1.0883    1.0877 calculate D2E/DX2 analyti!
 ! R12   R(31,32)           1.501     1.4977    1.5016 calculate D2E/DX2 analyti!
 ! R13   R(31,40)           1.0901    1.0899    1.0904 calculate D2E/DX2 analyti!
 ! R14   R(32,33)           1.4183    1.4337    1.416  calculate D2E/DX2 analyti!
 ! R15   R(32,41)           1.1067    1.103     1.1084 calculate D2E/DX2 analyti!
 ! R16   R(32,42)           1.1004    1.1021    1.1006 calculate D2E/DX2 analyti!
 ! R17   R(33,34)           1.4279    1.4236    1.4299 calculate D2E/DX2 analyti!
 ! R18   R(34,35)           1.5126    1.5005    1.5348 calculate D2E/DX2 analyti!
 ! R19   R(34,43)           1.1007    1.1038    1.1023 calculate D2E/DX2 analyti!
 ! R20   R(34,44)           1.0987    1.0984    1.098  calculate D2E/DX2 analyti!
 ! R21   R(35,36)           1.4608    1.4665    1.5364 calculate D2E/DX2 analyti!
 ! R22   R(35,37)           1.4198    1.4738    1.3797 calculate D2E/DX2 analyti!
 ! R23   R(35,45)           1.0952    1.0886    1.1068 calculate D2E/DX2 analyti!
 ! R24   R(36,37)           1.8374    1.4527    2.3144 calculate D2E/DX2 analyti!
 ! R25   R(36,46)           1.0776    1.0875    1.087  calculate D2E/DX2 analyti!
 ! R26   R(36,47)           1.079     1.0874    1.0885 calculate D2E/DX2 analyti!
 ! R27   R(36,77)           2.6491    5.7209    2.0555 calculate D2E/DX2 analyti!
 ! R28   R(41,77)           5.6808    2.8921    5.5627 calculate D2E/DX2 analyti!
 ! R29   R(43,77)           3.2234    2.9851    2.9439 calculate D2E/DX2 analyti!
 ! R30   R(60,77)          10.542     8.5587   10.8505 calculate D2E/DX2 analyti!
 ! R31   R(61,77)          10.597     8.6432   10.8693 calculate D2E/DX2 analyti!
 ! A1    A(6,3,8)         144.1805  141.8358  146.5553 calculate D2E/DX2 analyti!
 ! A2    A(7,5,8)         117.8624  113.8771  120.7546 calculate D2E/DX2 analyti!
 ! A3    A(2,6,3)         127.4414  127.1102  127.6882 calculate D2E/DX2 analyti!
 ! A4    A(3,6,15)        116.2796  116.6139  116.0323 calculate D2E/DX2 analyti!
 ! A5    A(4,7,5)         127.2425  126.9228  127.6269 calculate D2E/DX2 analyti!
 ! A6    A(5,7,16)        115.2252  115.546   114.8423 calculate D2E/DX2 analyti!
 ! A7    A(3,8,5)          85.8712   90.3802   84.284  calculate D2E/DX2 analyti!
 ! A8    A(3,8,11)         87.4951   90.4574   86.2054 calculate D2E/DX2 analyti!
 ! A9    A(3,8,37)        121.234   126.8332  120.3307 calculate D2E/DX2 analyti!
 ! A10   L(5,8,11,3,-1)   173.3663  180.8377  170.4894 calculate D2E/DX2 analyti!
 ! A11   L(5,8,11,3,-2)   173.2269  179.2812  167.285  calculate D2E/DX2 analyti!
 ! A12   A(5,8,37)         92.7884   87.5374   97.5968 calculate D2E/DX2 analyti!
 ! A13   A(11,8,37)        96.4392   92.5348   98.1633 calculate D2E/DX2 analyti!
 ! A14   A(8,11,14)       117.5804  113.5845  120.7545 calculate D2E/DX2 analyti!
 ! A15   A(9,13,10)       127.4985  127.2059  127.6636 calculate D2E/DX2 analyti!
 ! A16   A(9,13,17)       116.2253  116.5178  116.0593 calculate D2E/DX2 analyti!
 ! A17   A(11,14,12)      127.5292  127.1346  127.7988 calculate D2E/DX2 analyti!
 ! A18   A(11,14,18)      114.9384  115.3327  114.667  calculate D2E/DX2 analyti!
 ! A19   A(31,30,38)      121.6576  121.7204  121.6658 calculate D2E/DX2 analyti!
 ! A20   A(31,30,39)      121.4664  121.4608  121.4072 calculate D2E/DX2 analyti!
 ! A21   A(38,30,39)      116.8722  116.8175  116.9202 calculate D2E/DX2 analyti!
 ! A22   A(30,31,32)      124.5968  124.8355  124.6509 calculate D2E/DX2 analyti!
 ! A23   A(30,31,40)      120.1577  120.0301  120.1014 calculate D2E/DX2 analyti!
 ! A24   A(32,31,40)      115.2408  115.1127  115.2449 calculate D2E/DX2 analyti!
 ! A25   A(31,32,33)      108.9459  108.3727  108.959  calculate D2E/DX2 analyti!
 ! A26   A(31,32,41)      109.1384  110.2748  108.8359 calculate D2E/DX2 analyti!
 ! A27   A(31,32,42)      110.9374  110.5801  110.9533 calculate D2E/DX2 analyti!
 ! A28   A(33,32,41)      109.5077  109.3679  109.7999 calculate D2E/DX2 analyti!
 ! A29   A(33,32,42)      110.2751  110.0306  110.5311 calculate D2E/DX2 analyti!
 ! A30   A(41,32,42)      108.0129  108.2069  107.7343 calculate D2E/DX2 analyti!
 ! A31   A(32,33,34)      112.7274  112.2004  113.0179 calculate D2E/DX2 analyti!
 ! A32   A(33,34,35)      108.3766  108.1476  109.0543 calculate D2E/DX2 analyti!
 ! A33   A(33,34,43)      110.5216  110.191   109.0077 calculate D2E/DX2 analyti!
 ! A34   A(33,34,44)      110.6783  111.373   110.3895 calculate D2E/DX2 analyti!
 ! A35   A(35,34,43)      108.8216  108.3734  111.1793 calculate D2E/DX2 analyti!
 ! A36   A(35,34,44)      109.778   110.1319  108.615  calculate D2E/DX2 analyti!
 ! A37   A(43,34,44)      108.6413  108.5793  108.5931 calculate D2E/DX2 analyti!
 ! A38   A(34,35,36)      118.0237  122.0098  111.7436 calculate D2E/DX2 analyti!
 ! A39   A(34,35,37)      117.7301  120.2965  114.1423 calculate D2E/DX2 analyti!
 ! A40   A(34,35,45)      110.8251  114.8075  106.9226 calculate D2E/DX2 analyti!
 ! A41   A(36,35,37)       79.2473   59.2174  104.9284 calculate D2E/DX2 analyti!
 ! A42   A(36,35,45)      115.8144  117.9531  108.5587 calculate D2E/DX2 analyti!
 ! A43   A(37,35,45)      111.997   110.3901  110.4773 calculate D2E/DX2 analyti!
 ! A44   A(35,36,46)      118.9449  120.3038  110.0629 calculate D2E/DX2 analyti!
 ! A45   A(35,36,47)      119.0962  118.8702  112.38   calculate D2E/DX2 analyti!
 ! A46   A(35,36,77)      108.7645   54.9955  115.1997 calculate D2E/DX2 analyti!
 ! A47   A(37,36,46)      102.2738  113.7749   88.1728 calculate D2E/DX2 analyti!
 ! A48   A(37,36,47)      102.968   113.9504   97.4842 calculate D2E/DX2 analyti!
 ! A49   A(46,36,47)      119.768   116.2911  111.4762 calculate D2E/DX2 analyti!
 ! A50   A(46,36,77)       87.0624  117.8208  103.0218 calculate D2E/DX2 analyti!
 ! A51   A(47,36,77)       88.9489   79.7979  104.2502 calculate D2E/DX2 analyti!
 ! A52   A(8,37,35)       131.5536  142.6347  130.9962 calculate D2E/DX2 analyti!
 ! A53   A(8,37,36)       121.756   120.114   113.9254 calculate D2E/DX2 analyti!
 ! A54   A(32,41,77)       99.8336  163.8314   91.9402 calculate D2E/DX2 analyti!
 ! A55   A(34,43,77)      113.8617  156.3628  110.397  calculate D2E/DX2 analyti!
 ! A56   A(57,60,77)      123.2996  123.1814  122.278  calculate D2E/DX2 analyti!
 ! A57   A(57,61,77)      119.8075  117.781   121.1287 calculate D2E/DX2 analyti!
 ! A58   A(36,77,60)      168.3778  174.1751  162.9176 calculate D2E/DX2 analyti!
 ! A59   L(36,77,61,41,-1)  182.7835  194.8198  178.2001 calculate D2E/DX2 analy!
 ! A60   L(36,77,61,41,-2)  187.0086  177.6829  191.018 calculate D2E/DX2 analyt!
 ! A61   A(41,77,43)        6.9339   45.0342    3.0551 calculate D2E/DX2 analyti!
 ! A62   A(41,77,60)      110.3335  121.9568  103.5171 calculate D2E/DX2 analyti!
 ! A63   A(41,77,61)      119.2631  132.4036  112.3209 calculate D2E/DX2 analyti!
 ! A64   L(43,77,60,41,-1)  117.2674  166.991  106.5722 calculate D2E/DX2 analyt!
 ! A65   L(43,77,60,41,-2)  165.5967  185.1849  172.7918 calculate D2E/DX2 analy!
 ! A66   L(43,77,61,41,-1)  126.197  177.4378  115.376 calculate D2E/DX2 analyti!
 ! A67   L(43,77,61,41,-2)  161.8461  178.4326  169.6293 calculate D2E/DX2 analy!
 ! A68   L(60,77,61,41,-1)  229.5966  254.3604  215.8381 calculate D2E/DX2 analy!
 ! A69   L(60,77,61,41,-2)  356.2494  353.2477  356.8375 calculate D2E/DX2 analy!
 ! D1    D(1,2,6,3)         0.6797    0.0532    0.7304 calculate D2E/DX2 analyti!
 ! D2    D(8,3,6,2)        -2.2507   -0.3261   -2.9117 calculate D2E/DX2 analyti!
 ! D3    D(8,3,6,15)      178.4204  179.7186  177.8086 calculate D2E/DX2 analyti!
 ! D4    D(6,3,8,5)        88.4805   89.7872   86.1392 calculate D2E/DX2 analyti!
 ! D5    D(6,3,8,11)      -84.7464  -89.494   -81.1458 calculate D2E/DX2 analyti!
 ! D6    D(6,3,8,37)      179.2406  176.9951 -178.3882 calculate D2E/DX2 analyti!
 ! D7    D(1,4,7,5)        -0.4446    0.2607   -0.0001 calculate D2E/DX2 analyti!
 ! D8    D(8,5,7,4)         2.2789   -0.9993    1.3537 calculate D2E/DX2 analyti!
 ! D9    D(8,5,7,16)     -178.1703  179.2435 -178.6597 calculate D2E/DX2 analyti!
 ! D10   D(7,5,8,3)       -64.5531  -65.3904  -61.5649 calculate D2E/DX2 analyti!
 ! D11   D(7,5,8,37)      174.3167  167.7562  178.5238 calculate D2E/DX2 analyti!
 ! D12   D(3,8,11,14)      63.5953   66.0491   60.6606 calculate D2E/DX2 analyti!
 ! D13   D(37,8,11,14)   -175.2475 -167.049  -179.2224 calculate D2E/DX2 analyti!
 ! D14   D(3,8,37,35)     -33.3257  -61.0655  -62.404  calculate D2E/DX2 analyti!
 ! D15   D(3,8,37,36)     -97.6877 -140.1784 -105.8211 calculate D2E/DX2 analyti!
 ! D16   D(5,8,37,35)      53.5348   27.5643   25.3964 calculate D2E/DX2 analyti!
 ! D17   D(5,8,37,36)     -10.8272  -51.5486  -18.0206 calculate D2E/DX2 analyti!
 ! D18   D(11,8,37,35)   -124.3    -153.5381 -152.7746 calculate D2E/DX2 analyti!
 ! D19   D(11,8,37,36)    171.338   127.349   163.8084 calculate D2E/DX2 analyti!
 ! D20   D(1,10,13,9)      -0.2192   -0.2238   -0.4237 calculate D2E/DX2 analyti!
 ! D21   D(8,11,14,12)     -1.0916    0.0829   -0.3841 calculate D2E/DX2 analyti!
 ! D22   D(8,11,14,18)    178.6139 -179.5593  179.0401 calculate D2E/DX2 analyti!
 ! D23   D(1,12,14,11)     -0.2862    0.3797   -0.5751 calculate D2E/DX2 analyti!
 ! D24   D(38,30,31,32)  -178.1494 -177.2205 -178.3103 calculate D2E/DX2 analyti!
 ! D25   D(38,30,31,40)     1.0174    0.9969    1.0492 calculate D2E/DX2 analyti!
 ! D26   D(39,30,31,32)     2.5775    2.3532    2.6649 calculate D2E/DX2 analyti!
 ! D27   D(39,30,31,40)  -178.2557 -179.4294 -177.9756 calculate D2E/DX2 analyti!
 ! D28   D(30,31,32,33)  -130.5432 -127.1129 -130.7832 calculate D2E/DX2 analyti!
 ! D29   D(30,31,32,41)   109.9293  113.2029  109.5063 calculate D2E/DX2 analyti!
 ! D30   D(30,31,32,42)    -8.9681   -6.4338   -8.8697 calculate D2E/DX2 analyti!
 ! D31   D(40,31,32,33)    50.2532   54.5914   49.8294 calculate D2E/DX2 analyti!
 ! D32   D(40,31,32,41)   -69.2743  -65.0927  -69.8811 calculate D2E/DX2 analyti!
 ! D33   D(40,31,32,42)   171.8283  175.2706  171.7429 calculate D2E/DX2 analyti!
 ! D34   D(31,32,33,34)  -171.0753 -168.2609 -172.7356 calculate D2E/DX2 analyti!
 ! D35   D(41,32,33,34)   -51.7775  -48.0098  -53.6245 calculate D2E/DX2 analyti!
 ! D36   D(42,32,33,34)    66.9475   70.7195   65.0954 calculate D2E/DX2 analyti!
 ! D37   D(31,32,41,77)   138.6047  150.07    134.875  calculate D2E/DX2 analyti!
 ! D38   D(33,32,41,77)    19.4255   30.9899   15.6884 calculate D2E/DX2 analyti!
 ! D39   D(42,32,41,77)  -100.692   -88.8664 -104.7415 calculate D2E/DX2 analyti!
 ! D40   D(32,33,34,35)  -166.3724  170.7735 -154.3871 calculate D2E/DX2 analyti!
 ! D41   D(32,33,34,43)    74.4615   52.4815   84.0623 calculate D2E/DX2 analyti!
 ! D42   D(32,33,34,44)   -45.9417  -68.0804  -35.1346 calculate D2E/DX2 analyti!
 ! D43   D(33,34,35,36)   173.7754  161.4458 -168.5799 calculate D2E/DX2 analyti!
 ! D44   D(33,34,35,37)    81.4247   90.9442   72.5591 calculate D2E/DX2 analyti!
 ! D45   D(33,34,35,45)   -49.3199  -44.6665  -49.9265 calculate D2E/DX2 analyti!
 ! D46   D(43,34,35,36)   -65.993   -79.1087  -48.3575 calculate D2E/DX2 analyti!
 ! D47   D(43,34,35,37)  -158.3437 -149.6103 -167.2185 calculate D2E/DX2 analyti!
 ! D48   D(43,34,35,45)    70.9118   74.7789   70.2958 calculate D2E/DX2 analyti!
 ! D49   D(44,34,35,36)    52.7861   39.5332   71.0702 calculate D2E/DX2 analyti!
 ! D50   D(44,34,35,37)   -39.5646  -30.9683  -47.7908 calculate D2E/DX2 analyti!
 ! D51   D(44,34,35,45)  -170.3091 -166.5791 -170.2764 calculate D2E/DX2 analyti!
 ! D52   D(33,34,43,77)   146.7068  -41.9453  136.4319 calculate D2E/DX2 analyti!
 ! D53   D(35,34,43,77)    27.8105 -160.0985   16.182  calculate D2E/DX2 analyti!
 ! D54   D(44,34,43,77)   -91.6792   80.2809 -103.2588 calculate D2E/DX2 analyti!
 ! D55   D(34,35,36,46)   163.0538  149.3826 -178.9437 calculate D2E/DX2 analyti!
 ! D56   D(34,35,36,47)   -33.7943   -5.8579  -54.0611 calculate D2E/DX2 analyti!
 ! D57   D(34,35,36,77)    65.8129   44.8666   65.1459 calculate D2E/DX2 analyti!
 ! D58   D(37,35,36,46)   -81.1319 -101.9479  -54.7463 calculate D2E/DX2 analyti!
 ! D59   D(37,35,36,47)    82.0199  102.8116   70.1363 calculate D2E/DX2 analyti!
 ! D60   D(37,35,36,77)  -178.3728  153.5361 -170.6567 calculate D2E/DX2 analyti!
 ! D61   D(45,35,36,46)    28.2372   -3.727    63.3806 calculate D2E/DX2 analyti!
 ! D62   D(45,35,36,47)  -168.6109 -158.9675 -171.7368 calculate D2E/DX2 analyti!
 ! D63   D(45,35,36,77)   -69.0037 -108.243   -52.5297 calculate D2E/DX2 analyti!
 ! D64   D(34,35,37,8)     15.0754    9.8842   44.304  calculate D2E/DX2 analyti!
 ! D65   D(36,35,37,8)   -101.0577 -101.6174  -78.3551 calculate D2E/DX2 analyti!
 ! D66   D(45,35,37,8)    145.2814  147.2415  164.826  calculate D2E/DX2 analyti!
 ! D67   D(46,36,37,8)   -121.9731 -110.7767 -104.0943 calculate D2E/DX2 analyti!
 ! D68   D(47,36,37,8)      2.8818   25.7159    7.329  calculate D2E/DX2 analyti!
 ! D69   D(35,36,61,57)   -55.0235  -53.7935  -56.772  calculate D2E/DX2 analyti!
 ! D70   D(46,36,61,57)  -175.5168 -168.2039  177.3646 calculate D2E/DX2 analyti!
 ! D71   D(47,36,61,57)    64.1861   77.909    62.7725 calculate D2E/DX2 analyti!
 ! D72   D(35,36,77,60)   -92.3692 -168.2862  -91.2587 calculate D2E/DX2 analyti!
 ! D73   D(46,36,77,60)   148.0022   82.6291  148.8757 calculate D2E/DX2 analyti!
 ! D74   D(47,36,77,60)    28.1234  -31.8208   32.36   calculate D2E/DX2 analyti!
 ! D75   D(32,41,77,43)    -8.0419   -8.742    13.2381 calculate D2E/DX2 analyti!
 ! D76   D(32,41,77,60)  -173.6386  166.0731 -159.5537 calculate D2E/DX2 analyti!
 ! D77   D(32,41,77,61)  -169.888   172.8254 -156.3911 calculate D2E/DX2 analyti!
 ! D78   D(34,43,77,41)   152.8985   15.3066  170.1071 calculate D2E/DX2 analyti!
 ! D79   D(56,57,60,77)   124.0821  123.0343  122.7916 calculate D2E/DX2 analyti!
 ! D80   D(61,57,60,77)     2.8417    1.7939    1.5512 calculate D2E/DX2 analyti!
 ! D81   D(62,57,60,77)  -113.8824 -114.9301 -115.1728 calculate D2E/DX2 analyti!
 ! D82   D(56,57,61,77)  -120.7977 -119.7551 -119.6042 calculate D2E/DX2 analyti!
 ! D83   D(60,57,61,77)    -2.7229   -1.6804   -1.5295 calculate D2E/DX2 analyti!
 ! D84   D(62,57,61,77)   112.9968  114.0394  114.1903 calculate D2E/DX2 analyti!
 ! D85   D(57,60,77,36)  -145.7518  -68.8033 -149.7589 calculate D2E/DX2 analyti!
 ! D86   D(57,60,77,41)   158.2065  153.6794  160.6749 calculate D2E/DX2 analyti!
 ! D87   D(57,61,77,41)   -20.0603  -28.3485  -18.4686 calculate D2E/DX2 analyti!
 --------------------------------------------------------------------------------
 Trust Radius=3.00D-01 FncErr=1.00D-07 GrdErr=1.00D-06 EigMax=2.50D+02 EigMin=1.00D-04
 Number of steps in this run=    356 maximum allowed number of steps=    462.
 Search for a saddle point of order  1.
 GradGradGradGradGradGradGradGradGradGradGradGradGradGradGradGradGradGrad

 Symmetry turned off by external request.
 Stoichiometry    C23H39BrN2O10Zn2
 Framework group  C1[X(C23H39BrN2O10Zn2)]
 Deg. of freedom   225
 Full point group                 C1      NOp   1
                          Input orientation:                          
 ---------------------------------------------------------------------
 Center     Atomic      Atomic             Coordinates (Angstroms)
 Number     Number       Type             X           Y           Z
 ---------------------------------------------------------------------
      1         30           0       -1.451491   -0.057618    0.039118
      2          8           0       -1.357024    1.539553    1.344161
      3          8           0        0.900389    1.609596    1.250544
      4          8           0       -0.528402    1.191553   -1.458968
      5          8           0        1.719176    1.365105   -1.605882
      6          6           0       -0.218228    2.002472    1.655543
      7          6           0        0.539459    1.628648   -1.965956
      8         30           0        1.976347    0.035132   -0.072837
      9          8           0        0.961079   -1.520825   -1.312890
     10          8           0       -1.296356   -1.644274   -1.272953
     11          8           0        1.911154   -1.213991    1.515243
     12          8           0       -0.350211   -1.223138    1.483387
     13          6           0       -0.141905   -2.013489   -1.645829
     14          6           0        0.775416   -1.570318    1.931541
     15          1           0       -0.212410    2.855121    2.355117
     16          1           0        0.452259    2.325134   -2.814762
     17          1           0       -0.104037   -2.864249   -2.346700
     18          1           0        0.791031   -2.269224    2.782692
     19          6           0       -4.290846    0.719773    0.857192
     20          6           0       -5.682192    0.691517    0.922528
     21          6           0       -6.372494   -0.266583    0.178008
     22          6           0       -5.646460   -1.164155   -0.606856
     23          6           0       -4.256318   -1.073614   -0.620675
     24          7           0       -3.591488   -0.147797    0.098858
     25          1           0       -7.457187   -0.312940    0.208912
     26          1           0       -3.699950    1.440916    1.412882
     27          1           0       -6.206250    1.408245    1.545704
     28          1           0       -6.142067   -1.924463   -1.200985
     29          1           0       -3.638620   -1.743207   -1.210660
     30          6           0        3.275335    3.710283    4.634698
     31          6           0        4.193524    3.600996    3.670472
     32          6           0        3.885934    3.554070    2.202040
     33          8           0        4.571728    2.455986    1.622757
     34          6           0        4.501486    2.451920    0.196635
     35          6           0        4.954985    1.096778   -0.299289
     36          6           0        4.834932    0.813077   -1.727231
     37          8           0        4.010909    0.036434   -0.280245
     38          1           0        3.553895    3.769657    5.683540
     39          1           0        2.212004    3.732256    4.406373
     40          1           0        5.252241    3.552468    3.925401
     41          1           0        4.228129    4.494456    1.729419
     42          1           0        2.803044    3.461126    2.029877
     43          1           0        5.163456    3.223959   -0.224514
     44          1           0        3.474580    2.647095   -0.141790
     45          1           0        5.903993    0.809502    0.165900
     46          1           0        5.390752   -0.010816   -2.143805
     47          1           0        4.008996    1.235272   -2.278438
     48          7           0       12.566652   10.349880  -11.705526
     49          6           0       12.018190   11.137578  -12.914680
     50          6           0       10.513428   11.094173  -13.159752
     51          1           0       12.556042   10.741989  -13.788409
     52          1           0       12.321218   12.173186  -12.738183
     53          1           0       10.346575   11.628303  -14.100617
     54          1           0       10.126737   10.084986  -13.300922
     55          1           0        9.926341   11.600176  -12.387448
     56          6           0       11.634802   10.520578  -10.518859
     57          6           0       12.082772    9.876223   -9.209415
     58          1           0       10.671150   10.112116  -10.818854
     59          1           0       11.509004   11.599820  -10.390844
     60          1           0       11.303743   10.066482   -8.464393
     61          1           0       12.193716    8.792343   -9.293240
     62          1           0       13.013231   10.296001   -8.820013
     63          6           0       13.931371   10.954572  -11.342087
     64          6           0       14.897866   11.185542  -12.501740
     65          1           0       14.371754   10.272423  -10.613560
     66          1           0       13.709505   11.896961  -10.831256
     67          1           0       15.884712   11.378760  -12.068138
     68          1           0       14.973789   10.335533  -13.186337
     69          1           0       14.622338   12.054412  -13.102778
     70          6           0       12.802675    8.867292  -12.042767
     71          6           0       11.574272    8.015242  -12.329415
     72          1           0       13.362724    8.468508  -11.194577
     73          1           0       13.429437    8.862942  -12.943458
     74          1           0       11.927303    6.981610  -12.401192
     75          1           0       10.806080    8.046741  -11.549915
     76          1           0       11.139989    8.256157  -13.300620
     77         35           0        6.475793    2.413805   -3.054978
 ---------------------------------------------------------------------
 Rotational constants (GHZ):           0.0992496           0.0112771           0.0107718
 General basis read from cards:  (5D, 7F)
 ======================================================================================================
                                       Pseudopotential Parameters
 ======================================================================================================
  Center     Atomic      Valence      Angular      Power
  Number     Number     Electrons     Momentum     of R      Exponent        Coefficient   SO-Coeffient
 ======================================================================================================
    1         30           12
                                      F and up 
                                                     1      386.7379660      -18.00000000    0.00000000
                                                     2       72.8587359     -124.35274030    0.00000000
                                                     2       15.9066170      -30.66018220    0.00000000
                                                     2        4.3502340      -10.63589890    0.00000000
                                                     2        1.2842199       -0.76836230    0.00000000
                                      S - F
                                                     0       19.0867858        3.00000000    0.00000000
                                                     1        5.0231080       22.52342250    0.00000000
                                                     2        1.2701744       48.44659420    0.00000000
                                                     2        1.0671287      -44.55601190    0.00000000
                                                     2        0.9264190       12.99839580    0.00000000
                                      P - F
                                                     0       43.4927750        5.00000000    0.00000000
                                                     1       20.8692669       20.74355890    0.00000000
                                                     2       21.7118378       90.30271580    0.00000000
                                                     2        6.3616915       74.66103160    0.00000000
                                                     2        1.2291195        9.88944240    0.00000000
                                      D - F
                                                     2       13.5851800       -4.84903590    0.00000000
                                                     2        9.8373050        3.69133790    0.00000000
                                                     2        0.8373113       -0.50373190    0.00000000
    2          8
                                   No pseudopotential on this center.
    3          8
                                   No pseudopotential on this center.
    4          8
                                   No pseudopotential on this center.
    5          8
                                   No pseudopotential on this center.
    6          6
                                   No pseudopotential on this center.
    7          6
                                   No pseudopotential on this center.
    8         30           12
                                      F and up 
                                                     1      386.7379660      -18.00000000    0.00000000
                                                     2       72.8587359     -124.35274030    0.00000000
                                                     2       15.9066170      -30.66018220    0.00000000
                                                     2        4.3502340      -10.63589890    0.00000000
                                                     2        1.2842199       -0.76836230    0.00000000
                                      S - F
                                                     0       19.0867858        3.00000000    0.00000000
                                                     1        5.0231080       22.52342250    0.00000000
                                                     2        1.2701744       48.44659420    0.00000000
                                                     2        1.0671287      -44.55601190    0.00000000
                                                     2        0.9264190       12.99839580    0.00000000
                                      P - F
                                                     0       43.4927750        5.00000000    0.00000000
                                                     1       20.8692669       20.74355890    0.00000000
                                                     2       21.7118378       90.30271580    0.00000000
                                                     2        6.3616915       74.66103160    0.00000000
                                                     2        1.2291195        9.88944240    0.00000000
                                      D - F
                                                     2       13.5851800       -4.84903590    0.00000000
                                                     2        9.8373050        3.69133790    0.00000000
                                                     2        0.8373113       -0.50373190    0.00000000
    9          8
                                   No pseudopotential on this center.
   10          8
                                   No pseudopotential on this center.
   11          8
                                   No pseudopotential on this center.
   12          8
                                   No pseudopotential on this center.
   13          6
                                   No pseudopotential on this center.
   14          6
                                   No pseudopotential on this center.
   15          1
                                   No pseudopotential on this center.
   16          1
                                   No pseudopotential on this center.
   17          1
                                   No pseudopotential on this center.
   18          1
                                   No pseudopotential on this center.
   19          6
                                   No pseudopotential on this center.
   20          6
                                   No pseudopotential on this center.
   21          6
                                   No pseudopotential on this center.
   22          6
                                   No pseudopotential on this center.
   23          6
                                   No pseudopotential on this center.
   24          7
                                   No pseudopotential on this center.
   25          1
                                   No pseudopotential on this center.
   26          1
                                   No pseudopotential on this center.
   27          1
                                   No pseudopotential on this center.
   28          1
                                   No pseudopotential on this center.
   29          1
                                   No pseudopotential on this center.
   30          6
                                   No pseudopotential on this center.
   31          6
                                   No pseudopotential on this center.
   32          6
                                   No pseudopotential on this center.
   33          8
                                   No pseudopotential on this center.
   34          6
                                   No pseudopotential on this center.
   35          6
                                   No pseudopotential on this center.
   36          6
                                   No pseudopotential on this center.
   37          8
                                   No pseudopotential on this center.
   38          1
                                   No pseudopotential on this center.
   39          1
                                   No pseudopotential on this center.
   40          1
                                   No pseudopotential on this center.
   41          1
                                   No pseudopotential on this center.
   42          1
                                   No pseudopotential on this center.
   43          1
                                   No pseudopotential on this center.
   44          1
                                   No pseudopotential on this center.
   45          1
                                   No pseudopotential on this center.
   46          1
                                   No pseudopotential on this center.
   47          1
                                   No pseudopotential on this center.
   48          7
                                   No pseudopotential on this center.
   49          6
                                   No pseudopotential on this center.
   50          6
                                   No pseudopotential on this center.
   51          1
                                   No pseudopotential on this center.
   52          1
                                   No pseudopotential on this center.
   53          1
                                   No pseudopotential on this center.
   54          1
                                   No pseudopotential on this center.
   55          1
                                   No pseudopotential on this center.
   56          6
                                   No pseudopotential on this center.
   57          6
                                   No pseudopotential on this center.
   58          1
                                   No pseudopotential on this center.
   59          1
                                   No pseudopotential on this center.
   60          1
                                   No pseudopotential on this center.
   61          1
                                   No pseudopotential on this center.
   62          1
                                   No pseudopotential on this center.
   63          6
                                   No pseudopotential on this center.
   64          6
                                   No pseudopotential on this center.
   65          1
                                   No pseudopotential on this center.
   66          1
                                   No pseudopotential on this center.
   67          1
                                   No pseudopotential on this center.
   68          1
                                   No pseudopotential on this center.
   69          1
                                   No pseudopotential on this center.
   70          6
                                   No pseudopotential on this center.
   71          6
                                   No pseudopotential on this center.
   72          1
                                   No pseudopotential on this center.
   73          1
                                   No pseudopotential on this center.
   74          1
                                   No pseudopotential on this center.
   75          1
                                   No pseudopotential on this center.
   76          1
                                   No pseudopotential on this center.
   77         35
                                   No pseudopotential on this center.
 ======================================================================================================
   893 basis functions,  1558 primitive gaussians,   934 cartesian basis functions
   165 alpha electrons      165 beta electrons
       nuclear repulsion energy      4754.8899941040 Hartrees.
 NAtoms=   77 NActive=   77 NUniq=   77 SFac= 1.00D+00 NAtFMM=   60 NAOKFM=T Big=T
 Integral buffers will be    131072 words long.
 Raffenetti 2 integral format.
 Two-electron integral symmetry is turned off.
 One-electron integrals computed using PRISM.
   1 Symmetry operations used in ECPInt.
 ECPInt:  NShTT=   50403 NPrTT=  223596 LenC2=   25975 LenP2D=   70778.
 LDataN:  DoStor=T MaxTD1= 5 Len=  102
 NBasis=   893 RedAO= T EigKep=  7.00D-06  NBF=   893
 NBsUse=   893 1.00D-06 EigRej= -1.00D+00 NBFU=   893
 ExpMin= 3.50D-02 ExpMax= 5.74D+05 ExpMxC= 5.74D+03 IAcc=3 IRadAn=         5 AccDes= 0.00D+00
 Harris functional with IExCor=  402 and IRadAn=       5 diagonalized for initial guess.
 HarFok:  IExCor=  402 AccDes= 0.00D+00 IRadAn=         5 IDoV= 1 UseB2=F ITyADJ=14
 ICtDFT=  3500011 ScaDFX=  1.000000  1.000000  1.000000  1.000000
 FoFCou: FMM=F IPFlag=           0 FMFlag=      100000 FMFlg1=        2001
         NFxFlg=           0 DoJE=T BraDBF=F KetDBF=T FulRan=T
         wScrn=  0.000000 ICntrl=       500 IOpCl=  0 I1Cent=   200000004 NGrid=           0
         NMat0=    1 NMatS0=      1 NMatT0=    0 NMatD0=    1 NMtDS0=    0 NMtDT0=    0
 Symmetry not used in FoFCou.
 Gradient too large for Newton-Raphson -- use scaled steepest descent instead.
     Accept linear search using points  2 and  3.
 Gradient too large for Newton-Raphson -- use scaled steepest descent instead.
     Minimum is close to point  3 DX= -1.35D-02 DF= -5.34D-05 DXR=  2.78D-02 DFR=  7.66D-04 which will be used.
 Gradient too large for Newton-Raphson -- use scaled steepest descent instead.
     Accept linear search using points  1 and  2.
 Gradient too large for Newton-Raphson -- use scaled steepest descent instead.
 Gradient too large for Newton-Raphson -- use scaled steepest descent instead.
     Accept linear search using points  1 and  2.
 Gradient too large for Newton-Raphson -- use scaled steepest descent instead.
     Accept linear search using points  1 and  2.
 Gradient too large for Newton-Raphson -- use scaled steepest descent instead.
     Accept linear search using points  2 and  3.
 LinEq1:  Iter=  0 NonCon=     1 RMS=1.61D-05 Max=1.62D-03 NDo=     1
 AX will form     1 AO Fock derivatives at one time.
 LinEq1:  Iter=  1 NonCon=     1 RMS=2.00D-05 Max=2.39D-03 NDo=     1
 LinEq1:  Iter=  2 NonCon=     1 RMS=5.28D-06 Max=4.91D-04 NDo=     1
 LinEq1:  Iter=  3 NonCon=     1 RMS=3.59D-06 Max=2.01D-04 NDo=     1
 LinEq1:  Iter=  4 NonCon=     1 RMS=2.48D-06 Max=2.46D-04 NDo=     1
 LinEq1:  Iter=  5 NonCon=     1 RMS=1.59D-06 Max=8.52D-05 NDo=     1
 LinEq1:  Iter=  6 NonCon=     1 RMS=7.65D-07 Max=3.42D-05 NDo=     1
 LinEq1:  Iter=  7 NonCon=     1 RMS=5.12D-07 Max=4.48D-05 NDo=     1
 LinEq1:  Iter=  8 NonCon=     1 RMS=3.25D-07 Max=1.90D-05 NDo=     1
 LinEq1:  Iter=  9 NonCon=     1 RMS=1.87D-07 Max=2.37D-05 NDo=     1
 LinEq1:  Iter= 10 NonCon=     1 RMS=1.24D-07 Max=1.46D-05 NDo=     1
 LinEq1:  Iter= 11 NonCon=     1 RMS=7.00D-08 Max=4.28D-06 NDo=     1
 LinEq1:  Iter= 12 NonCon=     1 RMS=3.66D-08 Max=1.79D-06 NDo=     1
 LinEq1:  Iter= 13 NonCon=     1 RMS=3.01D-08 Max=1.74D-06 NDo=     1
 LinEq1:  Iter= 14 NonCon=     1 RMS=2.04D-08 Max=8.78D-07 NDo=     1
 LinEq1:  Iter= 15 NonCon=     1 RMS=1.21D-08 Max=8.42D-07 NDo=     1
 LinEq1:  Iter= 16 NonCon=     1 RMS=7.20D-09 Max=5.06D-07 NDo=     1
 LinEq1:  Iter= 17 NonCon=     0 RMS=4.05D-09 Max=2.22D-07 NDo=     1
 Linear equations converged to 4.901D-08 4.901D-07 after    17 iterations.
     Accept linear search using points  1 and  2.
     Minimum is close to point  2 DX= -3.01D-04 DF= -1.82D-12 DXR=  3.01D-04 DFR=  7.48D-08 which will be used.
 LinEq1:  Iter=  0 NonCon=     1 RMS=3.99D-08 Max=5.62D-06 NDo=     1
 LinEq1:  Iter=  1 NonCon=     1 RMS=2.43D-08 Max=3.34D-06 NDo=     1
 LinEq1:  Iter=  2 NonCon=     1 RMS=9.64D-09 Max=7.00D-07 NDo=     1
 LinEq1:  Iter=  3 NonCon=     1 RMS=6.70D-09 Max=6.04D-07 NDo=     1
 LinEq1:  Iter=  4 NonCon=     1 RMS=5.94D-09 Max=5.80D-07 NDo=     1
 LinEq1:  Iter=  5 NonCon=     1 RMS=2.47D-09 Max=3.09D-07 NDo=     1
 LinEq1:  Iter=  6 NonCon=     1 RMS=2.02D-09 Max=1.75D-07 NDo=     1
 LinEq1:  Iter=  7 NonCon=     1 RMS=1.28D-09 Max=1.39D-07 NDo=     1
 LinEq1:  Iter=  8 NonCon=     1 RMS=1.05D-09 Max=1.10D-07 NDo=     1
 LinEq1:  Iter=  9 NonCon=     1 RMS=7.73D-10 Max=7.96D-08 NDo=     1
 LinEq1:  Iter= 10 NonCon=     1 RMS=5.45D-10 Max=3.77D-08 NDo=     1
 LinEq1:  Iter= 11 NonCon=     1 RMS=3.12D-10 Max=1.86D-08 NDo=     1
 LinEq1:  Iter= 12 NonCon=     1 RMS=2.13D-10 Max=1.23D-08 NDo=     1
 LinEq1:  Iter= 13 NonCon=     1 RMS=1.64D-10 Max=9.88D-09 NDo=     1
 LinEq1:  Iter= 14 NonCon=     1 RMS=8.03D-11 Max=9.09D-09 NDo=     1
 LinEq1:  Iter= 15 NonCon=     1 RMS=6.28D-11 Max=7.39D-09 NDo=     1
 LinEq1:  Iter= 16 NonCon=     1 RMS=2.95D-11 Max=1.75D-09 NDo=     1
 LinEq1:  Iter= 17 NonCon=     1 RMS=2.09D-11 Max=1.31D-09 NDo=     1
 LinEq1:  Iter= 18 NonCon=     1 RMS=1.82D-11 Max=9.28D-10 NDo=     1
 LinEq1:  Iter= 19 NonCon=     0 RMS=1.05D-11 Max=3.72D-10 NDo=     1
 Linear equations converged to 5.439D-11 5.439D-10 after    19 iterations.
 Restarting incremental Fock formation.
 SCF Done:  E(RB3LYP) =  -4464.46166012     a.u. after   10 cycles
            Convg  =    0.5574D-08                    57 Fock formations.
              S**2 =  0.0000                  -V/T =  1.9810
 DoSCS=F DFT=T ScalE2(SS,OS)=  1.000000  1.000000
 Range of M.O.s used for correlation:     1   893
 NBasis=   893 NAE=   165 NBE=   165 NFC=     0 NFV=     0
 NROrb=    893 NOA=   165 NOB=   165 NVA=   728 NVB=   728

 **** Warning!!: The largest alpha MO coefficient is  0.84202175D+02


 **** Warning!!: The smallest alpha delta epsilon is  0.36400236D-01

   1 Symmetry operations used in ECPInt.
 ECPInt:  NShTT=   50403 NPrTT=  223596 LenC2=   25975 LenP2D=   70778.
 LDataN:  DoStor=T MaxTD1= 6 Len=  172
 Number of processors reduced to   5 by ecpmxn.
 Symmetrizing basis deriv contribution to polar:
 IMax=3 JMax=2 DiffMx= 0.00D+00
 G2DrvN: will do    78 centers at a time, making    1 passes.
 Calling FoFCou, ICntrl=  3107 FMM=T I1Cent=   0 AccDes= 0.00D+00.
 End of G2Drv F.D. properties file   721 does not exist.
 End of G2Drv F.D. properties file   722 does not exist.
 End of G2Drv F.D. properties file   788 does not exist.
          IDoAtm=00101001101000000000000000000111111111111111111000
          IDoAtm=000000000000000000000000001
          Differentiating once with respect to electric field.
                with respect to dipole field.
          Differentiating once with respect to nuclear coordinates.
 CalDSu exits because no D1Ps are significant.
          There are    75 degrees of freedom in the 1st order CPHF.  IDoFFX=6 NUNeed=     3.
     75 vectors produced by pass  0 Test12= 1.60D-13 1.33D-09 XBig12= 3.98D+02 6.08D+00.
 AX will form    75 AO Fock derivatives at one time.
     75 vectors produced by pass  1 Test12= 1.60D-13 1.33D-09 XBig12= 1.70D+02 3.58D+00.
     75 vectors produced by pass  2 Test12= 1.60D-13 1.33D-09 XBig12= 2.56D+01 1.23D+00.
     75 vectors produced by pass  3 Test12= 1.60D-13 1.33D-09 XBig12= 2.56D+00 3.12D-01.
     75 vectors produced by pass  4 Test12= 1.60D-13 1.33D-09 XBig12= 1.34D-01 8.96D-02.
     75 vectors produced by pass  5 Test12= 1.60D-13 1.33D-09 XBig12= 2.32D-03 6.77D-03.
     54 vectors produced by pass  6 Test12= 1.60D-13 1.33D-09 XBig12= 9.00D-05 1.04D-03.
     26 vectors produced by pass  7 Test12= 1.60D-13 1.33D-09 XBig12= 1.32D-06 1.40D-04.
     10 vectors produced by pass  8 Test12= 1.60D-13 1.33D-09 XBig12= 1.19D-08 1.14D-05.
      4 vectors produced by pass  9 Test12= 1.60D-13 1.33D-09 XBig12= 1.53D-10 1.56D-06.
      3 vectors produced by pass 10 Test12= 1.60D-13 1.33D-09 XBig12= 1.88D-12 2.65D-07.
      3 vectors produced by pass 11 Test12= 1.60D-13 1.33D-09 XBig12= 3.26D-14 3.48D-08.
      3 vectors produced by pass 12 Test12= 1.60D-13 1.33D-09 XBig12= 5.10D-16 4.81D-09.
 InvSVY:  IOpt=1 It=  1 EMax= 2.49D-14
 Solved reduced A of dimension   553 with    75 vectors.
 Isotropic polarizability for W=    0.000000      402.19 Bohr**3.
 End of Minotr F.D. properties file   721 does not exist.
 End of Minotr F.D. properties file   722 does not exist.
 End of Minotr F.D. properties file   788 does not exist.

 **********************************************************************

            Population analysis using the SCF Density.

 **********************************************************************

 Alpha  occ. eigenvalues -- -482.49543 -61.58007 -56.14796 -56.14688 -56.14681
 Alpha  occ. eigenvalues --  -19.08199 -19.07604 -19.07507 -19.07072 -19.06907
 Alpha  occ. eigenvalues --  -19.06638 -19.06602 -19.06594 -19.06408 -19.05892
 Alpha  occ. eigenvalues --  -14.57364 -14.35293 -10.36195 -10.35976 -10.35856
 Alpha  occ. eigenvalues --  -10.35479 -10.30125 -10.29748 -10.29585 -10.29351
 Alpha  occ. eigenvalues --  -10.23769 -10.23668 -10.23629 -10.23263 -10.22078
 Alpha  occ. eigenvalues --  -10.22075 -10.20907 -10.19617 -10.19617 -10.17003
 Alpha  occ. eigenvalues --  -10.16335 -10.16023 -10.15070 -10.13982 -10.13296
 Alpha  occ. eigenvalues --   -8.34988  -6.35995  -6.35674  -6.35664  -2.48058
 Alpha  occ. eigenvalues --   -2.47975  -2.47967  -2.47711  -2.47711  -1.12359
 Alpha  occ. eigenvalues --   -1.00189  -0.99725  -0.99606  -0.99247  -0.96732
 Alpha  occ. eigenvalues --   -0.94904  -0.92128  -0.91490  -0.91262  -0.91154
 Alpha  occ. eigenvalues --   -0.90907  -0.90656  -0.90475  -0.90224  -0.85186
 Alpha  occ. eigenvalues --   -0.80636  -0.77808  -0.77219  -0.76333  -0.76212
 Alpha  occ. eigenvalues --   -0.73462  -0.69500  -0.67309  -0.63843  -0.63733
 Alpha  occ. eigenvalues --   -0.63313  -0.62973  -0.62900  -0.61904  -0.59362
 Alpha  occ. eigenvalues --   -0.58402  -0.58066  -0.56448  -0.55983  -0.55704
 Alpha  occ. eigenvalues --   -0.55438  -0.55268  -0.55026  -0.54711  -0.54003
 Alpha  occ. eigenvalues --   -0.53908  -0.53459  -0.53248  -0.52754  -0.52407
 Alpha  occ. eigenvalues --   -0.52204  -0.52113  -0.52014  -0.51671  -0.51370
 Alpha  occ. eigenvalues --   -0.51317  -0.51127  -0.51069  -0.50782  -0.50576
 Alpha  occ. eigenvalues --   -0.50150  -0.49783  -0.49545  -0.48868  -0.48370
 Alpha  occ. eigenvalues --   -0.48142  -0.47721  -0.47554  -0.46668  -0.46635
 Alpha  occ. eigenvalues --   -0.46163  -0.43498  -0.43354  -0.43164  -0.42956
 Alpha  occ. eigenvalues --   -0.41843  -0.41309  -0.41047  -0.40814  -0.40217
 Alpha  occ. eigenvalues --   -0.40092  -0.39699  -0.39476  -0.39288  -0.38891
 Alpha  occ. eigenvalues --   -0.37607  -0.36947  -0.36740  -0.36131  -0.35949
 Alpha  occ. eigenvalues --   -0.35322  -0.35137  -0.33476  -0.33045  -0.31555
 Alpha  occ. eigenvalues --   -0.30730  -0.30023  -0.29349  -0.28486  -0.26536
 Alpha  occ. eigenvalues --   -0.26306  -0.25899  -0.23785  -0.23550  -0.23243
 Alpha  occ. eigenvalues --   -0.22995  -0.22483  -0.22169  -0.22097  -0.21731
 Alpha  occ. eigenvalues --   -0.21553  -0.21384  -0.21243  -0.20952  -0.20040
 Alpha  occ. eigenvalues --   -0.19113  -0.18485  -0.13737  -0.13484  -0.13458
 Alpha virt. eigenvalues --   -0.09818  -0.08122  -0.07998  -0.07770  -0.05859
 Alpha virt. eigenvalues --   -0.05726  -0.04701  -0.04381  -0.04037  -0.03810
 Alpha virt. eigenvalues --   -0.03775  -0.02152  -0.01960  -0.01485  -0.01300
 Alpha virt. eigenvalues --   -0.00708  -0.00580  -0.00314   0.00024   0.00906
 Alpha virt. eigenvalues --    0.01176   0.01786   0.01863   0.02616   0.02755
 Alpha virt. eigenvalues --    0.03301   0.03771   0.04011   0.04045   0.04692
 Alpha virt. eigenvalues --    0.04727   0.05000   0.05464   0.05703   0.05805
 Alpha virt. eigenvalues --    0.05959   0.06671   0.06692   0.06825   0.06947
[...]
 0.,0.,0.,0.,0.,0.,0.,0.,0.,0.,0.,0.,0.,0.,0.,0.,0.,0.,0.,0.,0.,0.,0.,0
 .,0.,0.,0.,0.,0.,0.,0.,0.,0.,0.,0.,0.,0.,0.,0.,0.,0.,0.,0.,0.,0.,0.,0.
 ,0.,0.,0.,0.,0.,0.,0.,0.,0.,0.,0.,0.,0.,0.,0.,0.,0.,0.,0.,0.,0.,0.,0.,
 0.,0.,0.,0.,0.,0.,0.,0.,0.,0.,0.,0.,0.,0.,0.,0.,0.,0.,0.,0.,0.,0.,0.,0
 .,0.,0.,0.,0.,0.,0.,0.,0.,0.,0.,0.,0.,0.,0.,0.,0.,0.,0.,0.,0.,0.,0.,0.
 ,0.,0.,0.,0.,0.,0.,0.,0.,0.,0.,0.,0.,0.,0.,0.,0.,0.,0.,0.,0.,0.,0.,0.,
 0.,0.,0.,0.,0.,0.,0.,0.,0.,0.,0.,0.,0.,0.,0.,0.,0.,0.,0.,0.,0.,0.,0.,0
 .,0.,0.,0.,0.,0.,0.,0.,0.,0.,0.,0.,0.,0.,0.,0.,0.,0.,0.,0.,0.,0.,0.,0.
 ,0.,0.,0.,0.,0.,0.,0.,0.,0.,0.,0.,0.,0.,0.,0.,0.,0.,0.,0.,0.,0.,0.,0.,
 0.,0.,0.,0.,0.,0.,0.,0.,0.,0.,0.,0.,0.,0.,0.,0.,0.,0.,0.,0.,0.,0.,0.,0
 .,0.,0.,0.,0.,0.,0.,0.,0.,0.,0.,0.,0.,0.,0.,0.,0.,0.,0.,0.,0.,0.,0.,0.
 ,0.,0.,0.,0.,0.,0.,0.,0.,0.,0.,0.,0.,0.,0.,0.,0.,0.,0.,0.,0.,0.,0.,0.,
 0.,0.,0.,0.,0.,0.,0.,0.,0.,0.,0.,0.,0.,0.,0.,0.,0.,0.,0.,0.,0.,0.,0.,0
 .,0.,0.,0.,0.,0.,0.,0.,0.,0.,0.,0.,0.,0.,0.,0.,0.,0.,0.,0.,0.,0.,0.,0.
 ,0.,0.,0.,0.,0.,0.,0.,0.,0.,0.,0.,0.,0.,0.,0.,0.,0.,0.,0.,0.,0.,0.,0.,
 0.,0.,0.,0.,0.,0.,0.,0.,0.,0.,0.,0.,0.,0.,0.,0.,0.,0.,0.,0.,0.,0.,0.,0
 .,0.,0.,0.,0.,0.,0.,0.,0.,0.,0.,0.,0.,0.,0.,0.,0.,0.,0.,0.,0.,0.,0.,0.
 ,0.,0.,0.,0.,0.,0.,0.,0.,0.,0.,0.,0.,0.,0.,0.,0.,0.,0.,0.,0.,0.,0.,0.,
 0.,0.,0.,0.,0.,0.,0.,0.,0.,0.,0.,0.,0.,0.,0.,0.,0.,0.,0.,0.,0.,0.,0.,0
 .,0.,0.,0.,0.,0.,0.,0.,0.,0.,0.,0.,0.,0.,0.,0.,0.,0.,0.,0.,0.,0.,0.,0.
 ,0.,0.,0.,0.,0.,0.,0.,0.,0.,0.,0.,0.,0.,0.,0.,0.,0.,0.,0.,0.,0.,0.,0.,
 0.,0.,0.,0.,0.,0.,0.,0.,0.,0.,0.,0.,0.,0.,0.,0.,0.,0.,0.,0.,0.,0.,0.,0
 .,0.,0.,0.,0.,0.,0.,0.,0.,0.,0.,0.,0.,0.,0.,0.,0.,0.,0.,0.,0.,0.,0.,0.
 ,0.,0.,0.,0.,0.,0.,0.,0.,0.,0.,0.,0.,0.,0.,0.,0.,0.,0.,0.,0.,0.,0.,0.,
 0.,0.,0.,0.,0.,0.,0.,0.,0.,0.,0.,0.,0.,0.,0.,0.,0.,0.,0.,0.,0.,0.,0.,0
 .,0.,0.,0.,0.,0.,0.,0.,0.,0.,0.,0.,0.,0.,0.,0.,0.,0.,0.,0.,0.,0.,0.,0.
 ,0.,0.,0.,0.,0.,0.,0.,0.,0.,0.,0.,0.,0.,0.,0.,0.,0.,0.,0.,0.,0.,0.,0.,
 0.,0.,0.,0.,0.,0.,0.,0.,0.,0.,0.,0.,0.,0.,0.,0.,0.,0.,0.,0.,0.,0.,0.,0
 .,0.,0.,0.,0.,0.,0.,0.,0.,0.,0.,0.,0.,0.,0.,0.,0.,0.,0.,0.,0.,0.,0.,0.
 ,0.,0.,0.,0.,0.,0.,0.,0.,0.,0.,0.,0.,0.,0.,0.,0.,0.,0.,0.,0.,0.,0.,0.,
 0.,0.,0.,0.,0.,0.,0.,0.,0.,0.,0.,0.,0.,0.,0.,0.,0.,0.,0.,0.,0.,0.,0.,0
 .,0.,0.,0.,0.,0.,0.,0.,0.,0.,0.,0.,0.,0.,0.,0.,0.,0.,0.,0.,0.,0.,0.,0.
 ,0.,0.,0.,0.,0.,0.,0.,0.,0.,0.,0.,0.,0.,0.,0.,0.,0.,0.,0.,0.,0.,0.,0.,
 0.,0.,0.,0.,0.,0.,0.,0.,0.,0.,0.,0.,0.,0.,0.,0.,0.,0.,0.,0.,0.,0.,0.,0
 .,0.,0.,0.,0.,0.,0.,0.,0.,0.,0.,0.,0.,0.,0.,0.,0.,0.,0.,0.,0.,0.,0.,0.
 ,0.,0.,0.,0.,0.,0.,0.,0.,0.,0.,0.,0.,0.,0.,0.,0.,0.,0.,0.,0.,0.,0.,0.,
 0.,0.,0.,0.,0.,0.,0.,0.,0.,0.,0.,0.,0.,0.,0.,0.,0.,0.,0.,0.,0.,0.,0.,0
 .,0.,0.,0.,0.,0.,0.,0.,0.,0.,0.,0.,0.,0.,0.,0.,0.,0.,0.,0.,0.,0.,0.,0.
 ,0.,0.,0.,0.,0.,0.,0.,0.,0.,0.,0.,0.,0.,0.,0.,0.,0.,0.,0.,0.,0.,0.,0.,
 0.,0.,0.,0.,0.,0.,0.,0.,0.,0.,0.,0.,0.,0.,0.,0.,0.,0.,0.,0.,0.,0.,0.,0
 .,0.,0.,0.,0.,0.,0.,0.,0.,0.,0.,0.,0.,0.,0.,0.,0.,0.,0.,0.,0.,0.,0.,0.
 ,0.,0.,0.,0.,0.,0.,0.,0.,0.,0.,0.,0.,0.,0.,0.,0.,0.,0.,0.,0.,0.,0.,0.,
 0.,0.,0.,0.,0.,0.,0.,0.,0.,0.,0.,0.,0.,0.,0.,0.,0.,0.,0.,0.,0.,0.,0.,0
 .,0.,0.,0.,0.,0.,0.,0.,0.,0.,0.,0.,0.,0.,0.,0.,0.,0.,0.,0.,0.,0.,0.,0.
 ,0.,0.,0.,0.,0.,0.,0.,0.,0.,0.,0.,0.,0.,0.,0.,0.,0.,0.,0.,0.,0.,0.,0.,
 0.,0.,0.,0.,0.,0.,0.,0.,0.,0.,0.,0.,0.,0.,0.,0.,0.,0.,0.,0.,0.,0.,0.,0
 .,0.,0.,0.,0.,0.,0.,0.,0.,0.,0.,0.,0.,0.,0.,0.,0.,0.,0.,0.,0.,0.,0.,0.
 ,0.,0.,0.,0.,0.,0.,0.,0.,0.,0.,0.,0.,0.,0.,0.,0.,0.,0.,0.,0.,0.,0.,0.,
 0.,0.,0.,0.,0.,0.,0.,0.,0.,0.,0.,0.,0.,0.,0.,0.,0.,0.,0.,0.,0.,0.,0.,0
 .,0.,0.,0.,0.,0.,0.,0.,0.,0.,0.,0.,0.,0.,0.,0.,0.,0.,0.,0.,0.,0.,0.,0.
 ,0.,0.,0.,0.,0.,0.,0.,0.,0.,0.,0.,0.,0.,0.,0.,0.,0.,0.,0.,0.,0.,0.,0.,
 0.,0.,0.,0.,0.,0.,0.,0.,0.,0.,0.,0.,0.,0.,0.,0.,0.,0.,0.,0.,0.,0.,0.,0
 .,0.,0.,0.,0.,0.,0.,0.,0.,0.,0.,0.,0.,0.,0.,0.,0.,0.,0.,0.,0.,0.,0.,0.
 ,0.,0.,0.,0.,0.,0.,0.,0.,0.,0.,0.,0.,0.,0.,0.,0.,0.,0.,0.,0.,0.,0.,0.,
 0.,0.,0.,0.,0.,0.,0.,0.,0.,0.,0.,0.,0.,0.,0.,0.,0.,0.,0.,0.,0.,0.,0.,0
 .,0.,0.,0.,0.,0.,0.,0.,0.,0.,0.,0.,0.,0.,0.,0.,0.,0.,0.,0.,0.,0.,0.,0.
 ,0.,0.,0.,0.,0.,0.,0.,0.,0.,0.,0.,0.,0.,0.,0.,0.,0.,0.,0.,0.,0.,0.,0.,
 0.,0.,0.,0.,0.,0.,0.,0.,0.,0.,0.,0.,0.,0.,0.,0.,0.,0.,0.,0.,0.,0.,0.,0
 .,0.,0.,0.,0.,0.,0.,0.,0.,0.,0.,0.,0.,0.,0.,0.,0.,0.,0.,0.,0.,0.,0.,0.
 ,0.,0.,0.,0.,0.,0.,0.,0.,0.,0.,0.,0.,0.,0.,0.,0.,0.,0.,0.,0.,0.,0.,0.,
 0.,0.,0.,0.,0.,0.,0.,0.,0.,0.,0.,0.,0.,0.,0.,0.,0.,0.,0.,0.,0.,0.,0.,0
 .,0.,0.,0.,0.,0.,0.,0.,0.,0.,0.,0.,0.,0.,0.,0.,0.,0.,0.,0.,0.,0.,0.,0.
 ,0.,0.,0.,0.,0.,0.,0.,0.,0.,0.,0.,0.,0.,0.,0.,0.,0.,0.,0.,0.,0.,0.,0.,
 0.,0.,0.,0.,0.,0.,0.,0.,0.,0.,0.,0.,0.,0.,0.,0.,0.,0.,0.,0.,0.,0.,0.,0
 .,0.,0.,0.,0.,0.,0.,0.,0.,0.,0.,0.,0.,0.,0.,0.,0.,0.,0.,0.,0.,0.,0.,0.
 ,0.,0.,0.,0.,0.,0.,0.,0.,0.,0.,0.,0.,0.,0.,0.,0.,0.,0.,0.,0.,0.,0.,0.,
 0.,0.,0.,0.,0.,0.,0.,0.,0.,0.,0.,0.,0.,0.,0.,0.,0.,0.,0.,0.,0.,0.,0.,0
 .,0.,0.,0.,0.,0.,0.,0.,0.,0.,0.,0.,0.,0.,0.,0.,0.,0.,0.,0.,0.,0.,0.,0.
 ,0.,0.,0.,0.,0.,0.,0.,0.,0.,0.,0.,0.,0.,0.,0.,0.,0.,0.,0.,0.,0.,0.,0.,
 0.,0.,0.,0.,0.,0.,0.,0.,0.,0.,0.,0.,0.,0.,0.,0.,0.,0.,0.,0.,0.,0.,0.,0
 .,0.,0.,0.,0.,0.,0.,0.,0.,0.,0.,0.,0.,0.,0.,0.,0.,0.,0.,0.,0.,0.,0.,0.
 ,0.,0.,0.,0.,0.,0.,0.,0.,0.,0.,0.,0.,0.,0.,0.,0.,0.,0.,0.,0.,0.,0.,0.,
 0.,0.,0.,0.,0.,0.,0.,0.,0.,0.,0.,0.,0.,0.,0.,0.,0.,0.,0.,0.,0.,0.,0.,0
 .,0.,0.,0.,0.,0.,0.,0.,0.,0.,0.,0.,0.,0.,0.,0.,0.,0.,0.,0.,0.,0.,0.,0.
 ,0.,0.,0.,0.,0.,0.,0.,0.,0.,0.,0.,0.,0.,0.,0.,0.,0.,0.,0.,0.,0.,0.,0.,
 0.,0.,0.,0.,0.,0.,0.,0.,0.,0.,0.,0.,0.,0.,0.,0.,0.,0.,0.,0.,0.,0.,0.,0
 .,0.,0.,0.,0.,0.,0.,0.,0.,0.,0.,0.,0.,0.,0.,0.,0.,0.,0.,0.,0.,0.,0.,0.
 ,0.,0.,0.,0.,0.,0.,0.,0.,0.,0.,0.,0.,0.,0.,0.,0.,0.,0.,0.,0.,0.,0.,0.,
 0.,0.,0.,0.,0.,0.,0.,0.,0.,0.,0.,0.,0.,0.,0.,0.,0.,0.,0.,0.,0.,0.,0.,0
 .,0.,0.,0.,0.,0.,0.,0.,0.,0.,0.,0.,0.,0.,0.,0.,0.,0.,0.,0.,0.,0.,0.,0.
 ,0.,0.,0.,0.,0.,0.,0.,0.,0.,0.,0.,0.,0.,0.,0.,0.,0.,0.,0.,0.,0.,0.,0.,
 0.,0.,0.,0.,0.,0.,0.,0.,0.,0.,0.,0.,0.,0.,0.,0.,0.,0.,0.,0.,0.,0.,0.,0
 .,0.,0.,0.,0.,0.,0.,0.,0.,0.,0.,0.,0.,0.,0.,0.,0.,0.,0.,0.,0.,0.,0.,0.
 ,0.,0.,0.,0.,0.,0.,0.,0.,0.,0.,0.,0.,0.,0.,0.,0.,0.,0.,0.,0.,0.,0.,0.,
 0.,0.,0.,0.,0.,0.,0.,0.,0.,0.,0.,0.,0.,0.,0.,0.,0.,0.,0.,0.,0.,0.,0.,0
 .,0.,0.,0.,0.,0.,0.,0.,0.,0.,0.,0.,0.,0.,0.,0.,0.,0.,0.,0.,0.,0.,0.,0.
 ,0.,0.,0.,0.,0.,0.,0.,0.,0.,0.,0.,0.,0.,0.,0.,0.,0.,0.,0.,0.,0.,0.,0.,
 0.,0.,0.,0.,0.,0.,0.,0.,0.,0.,0.,0.,0.,0.,0.,0.,0.,0.,0.,0.,0.,0.,0.,0
 .,0.,0.,0.,0.,0.,0.,0.,0.,0.,0.,0.,0.,0.,0.,0.,0.,0.,0.,0.,0.,0.,0.,0.
 ,0.,0.,0.,0.,0.,0.,0.,0.,0.,0.,0.,0.,0.,0.,0.,0.,0.,0.,0.,0.,0.,0.,0.,
 0.,0.,0.,0.,0.,0.,0.,0.,0.,0.,0.,0.,0.,0.,0.,0.,0.,0.,0.,0.,0.,0.,0.,0
 .,0.,0.,0.,0.,0.,0.,0.,0.,0.,0.,0.,0.,0.,0.,0.,0.,0.,0.,0.,0.,0.,0.,0.
 ,0.,0.,0.,0.,0.,0.,0.,0.,0.,0.,0.,0.,0.,0.,0.,0.,0.,0.,0.,0.,0.,0.,0.,
 0.,0.,0.,0.,0.,0.,0.,0.,0.,0.,0.,0.,0.,0.,0.,0.,0.,0.,0.,0.,0.,0.,0.,0
 .,0.,0.,0.,0.,0.,0.,0.,0.,0.,0.,0.,0.,0.,0.,0.,0.,0.,0.,0.,0.,0.,0.,0.
 ,0.,0.,0.,0.,0.,0.,0.,0.,0.,0.,0.,0.,0.,0.,0.,0.,0.,0.,0.,0.,0.,0.,0.,
 0.,0.,0.,0.,0.,0.,0.,0.,0.,0.,0.,0.,0.,0.,0.,0.,0.,0.,0.,0.,0.,0.,0.,0
 .,0.,0.,0.,0.,0.,0.,0.,0.,0.,0.,0.,0.,0.,0.,0.,0.,0.,0.,0.,0.,0.,0.,0.
 ,0.,0.,0.,0.,0.,0.,0.,0.,0.,0.,0.,0.,0.,0.,0.,0.,0.,0.,0.,0.,0.,0.,0.,
 0.,0.,0.,0.,0.,0.,0.,0.,0.,0.,0.,0.,0.,0.,0.,0.,0.,0.,0.,0.,0.,0.,0.,0
 .,0.,0.,0.,0.,0.,0.,0.,0.,0.,0.,0.,0.,0.,0.,0.,0.,0.,0.,0.,0.,0.,0.,0.
 ,0.,0.,0.,0.,0.,0.,0.,0.,0.,0.,0.,0.,0.,0.,0.,0.,0.,0.,0.,0.,0.,0.,0.,
 0.,0.,0.,0.,0.,0.,0.,0.,0.,0.,0.,0.,0.,0.,0.,0.,0.,0.,0.,0.,0.,0.,0.,0
 .,0.,0.,0.,0.,0.,0.,0.,0.,0.,0.,0.,0.,0.,0.,0.,0.,0.,0.,0.,0.,0.,0.,0.
 ,0.,0.,0.,0.,0.,0.,0.,0.,0.,0.,0.,0.,0.,0.,0.,0.,0.,0.,0.,0.,0.,0.,0.,
 0.,0.,0.,0.,0.,0.,0.,0.,0.,0.,0.,0.,0.,0.,0.,0.,0.,0.,0.,0.,0.,0.,0.,0
 .,0.,0.,0.,0.,0.,0.,0.,0.,0.,0.,0.,0.,0.,0.,0.,0.,0.,0.,0.,0.,0.,0.,0.
 ,0.,0.,0.,0.,0.,0.,0.,0.,0.,0.,0.,0.,0.,0.,0.,0.,0.,0.,0.,0.,0.,0.,0.,
 0.,0.,0.,0.,0.,0.,0.,0.,0.,0.,0.,0.,0.,0.,0.,0.,0.,0.,0.,0.,0.,0.,0.,0
 .,0.,0.,0.,0.,0.,0.,0.,0.,0.,0.,0.,0.,0.,0.,0.,0.,0.,0.,0.,0.,0.,0.,0.
 ,0.,0.,0.,0.,0.,0.,0.,0.,0.,0.,0.,0.,0.,0.,0.,0.,0.,0.,0.,0.,0.,0.,0.,
 0.,0.,0.,0.,0.,0.,0.,0.,0.,0.,0.,0.,0.,0.,0.,0.,0.,0.,0.,0.,0.,0.,0.,0
 .,0.,0.,0.,0.,0.,0.,0.,0.,0.,0.,0.,0.,0.,0.,0.,0.,0.,0.,0.,0.,0.,0.,0.
 ,0.,0.,0.,0.,0.,0.,0.,0.,0.,0.,0.,0.,0.,0.,0.,0.,0.,0.,0.,0.,0.,0.,0.,
 0.,0.,0.,0.,0.,0.,0.,0.,0.,0.,0.,0.,0.,0.,0.,0.,0.,0.,0.,0.,0.,0.,0.,0
 .,0.,0.,0.,0.,0.,0.,0.,0.,0.,0.,0.,0.,0.,0.,0.,0.,0.,0.,0.,0.,0.,0.,0.
 ,0.,0.,0.,0.,0.,0.,0.,0.,0.,0.,0.,0.,0.,0.,0.,0.,0.,0.,0.,0.,0.,0.,0.,
 0.,0.,0.,0.,0.,0.,0.,0.,0.,0.,0.,0.,0.,0.,0.,0.,0.,0.,0.,0.,0.,0.,0.,0
 .,0.,0.,0.,0.,0.,0.,0.,0.,0.,0.,0.,0.,0.,0.,0.,0.,0.,0.,0.,0.,0.,0.,0.
 ,0.,0.,0.,0.,0.,0.,0.,0.,0.,0.,0.,0.,0.,0.,0.,0.,0.,0.,0.,0.,0.,0.,0.,
 0.,0.,0.,0.,0.,0.,0.,0.,0.,0.,0.,0.,0.,0.,0.,0.,0.,0.,0.,0.,0.,0.,0.,0
 .,0.,0.,0.,0.,0.,0.,0.,0.,0.,0.,0.,0.,0.,0.,0.,0.,0.,0.,0.,0.,0.,0.,0.
 ,0.,0.,0.,0.,0.,0.,0.,0.,0.,0.,0.,0.,0.,0.,0.,0.,0.,0.,0.,0.,0.,0.,0.,
 0.,0.,0.,0.,0.,0.,0.,0.,0.,0.,0.,0.,0.,0.,0.,0.,0.,0.,0.,0.,0.,0.,0.,0
 .,0.,0.,0.,0.,0.,0.,0.,0.,0.,0.,0.,0.,0.,0.,0.,0.,0.,0.,0.,0.,0.,0.,0.
 ,0.,0.,0.,0.,0.,0.,0.,0.,0.,0.,0.,0.,0.,0.,0.,0.,0.,0.,0.,0.,0.,0.,0.,
 0.,0.,0.,0.,0.,0.,0.,0.,0.,0.,0.,0.,0.,0.,0.,0.,0.,0.,0.,0.,0.,0.,0.,0
 .,0.,0.,0.,0.,0.,0.,0.,0.,0.,0.,0.,0.,0.,0.,0.,0.,0.,0.,0.,0.,0.,0.,0.
 ,0.,0.,0.,0.,0.,0.,0.,0.,0.,0.,0.,0.,0.,0.,0.,0.,0.,0.,0.,0.,0.,0.,0.,
 0.,0.,0.,0.,0.,0.,0.,0.,0.,0.,0.,0.,0.,0.,0.,0.,0.,0.,0.,0.,0.,0.,0.,0
 .,0.,0.,0.,0.,0.,0.,0.,0.,0.,0.,0.,0.,0.,0.,0.,0.,0.,0.,0.,0.,0.,0.,0.
 ,0.,0.,0.,0.,0.,0.,0.,0.,0.,0.,0.,0.,0.,0.,0.,0.,0.,0.,0.,0.,0.,0.,0.,
 0.,0.,0.,0.,0.,0.,0.,0.,0.,0.,0.,0.,0.,0.,0.,0.,0.,0.,0.,0.,0.,0.,0.,0
 .,0.,0.,0.,0.,0.,0.,0.,0.,0.,0.,0.,0.,0.,0.,0.,0.,0.,0.,0.,0.,0.,0.,0.
 ,0.,0.,0.,0.,0.,0.,0.,0.,0.,0.,0.,0.,0.,0.,0.,0.,0.,0.,0.,0.,0.,0.,0.,
 0.,0.,0.,0.,0.,0.,0.,0.,0.,0.,0.,0.,0.,0.,0.,0.,0.,0.,0.,0.,0.,0.,0.,0
 .,0.,0.,0.,0.,0.,0.,0.,0.,0.,0.,0.,0.,0.,0.,0.,0.,0.,0.,0.,0.,0.,0.,0.
 ,0.,0.,0.,0.,0.,0.,0.,0.,0.,0.,0.,0.,0.,0.,0.,0.,0.,0.,0.,0.,0.,0.,0.,
 0.,0.,0.,0.,0.,0.,0.,0.,0.,0.,0.,0.,0.,0.,0.,0.,0.,0.,0.,0.,0.,0.,0.,0
 .,0.,0.,0.,0.,0.,0.,0.,0.,0.,0.,0.,0.,0.,0.,0.,0.,0.,0.,0.,0.,0.,0.,0.
 ,0.,0.,0.,0.,0.,0.,0.,0.,0.,0.,0.,0.,0.,0.,0.,0.,0.,0.,0.,0.,0.,0.,0.,
 0.,0.,0.,0.,0.,0.,0.,0.,0.,0.,0.,0.,0.,0.,0.,0.,0.,0.,0.,0.,0.,0.,0.,0
 .,0.,0.,0.,0.,0.,0.,0.,0.,0.,0.,0.,0.,0.,0.,0.,0.,0.,0.,0.,0.,0.,0.,0.
 ,0.,0.,0.,0.,0.,0.,0.,0.,0.,0.,0.,0.,0.,0.,0.,0.,0.,0.,0.,0.,0.,0.,0.,
 0.,0.,0.,0.,0.,0.,0.,0.,0.,0.,0.,0.,0.,0.,0.,0.,0.,0.,0.,0.,0.,0.,0.,0
 .,0.,0.,0.,0.,0.,0.,0.,0.,0.,0.,0.,0.,0.,0.,0.,0.,0.,0.,0.,0.,0.,0.,0.
 ,0.,0.,0.,0.,0.,0.,0.,0.,0.,0.,0.,0.,0.,0.,0.,0.,0.,0.,0.,0.,0.,0.,0.,
 0.,0.,0.,0.,0.,0.,0.,0.,0.,0.,0.,0.,0.,0.,0.,0.,0.,0.,0.,0.,0.,0.,0.,0
 .,0.,0.,0.,0.,0.,0.,0.,0.,0.,0.,0.,0.,0.,0.,0.,0.,0.,0.,0.,0.,0.,0.,0.
 ,0.,0.,0.,0.,0.,0.,0.,0.,0.,0.,0.,0.,0.,0.,0.,0.,0.,0.,0.,0.,0.,0.,0.,
 0.,0.,0.,0.,0.,0.,0.,0.,0.,0.,0.,0.,0.,0.,0.,0.,0.,0.,0.,0.,0.,0.,0.,0
 .,0.,0.,0.,0.,0.,0.,0.,0.,0.,0.,0.,0.,0.,0.,0.,0.,0.,0.,0.,0.,0.,0.,0.
 ,0.,0.,0.,0.,0.,0.,0.,0.,0.,0.,0.,0.,0.,0.,0.,0.,0.,0.,0.,0.,0.,0.,0.,
 0.,0.,0.,0.,0.,0.,0.,0.,0.,0.,0.,0.,0.,0.,0.,0.,0.,0.,0.,0.,0.,0.,0.,0
 .,0.,0.,0.,0.,0.,0.,0.,0.,0.,0.,0.,0.,0.,0.,0.,0.,0.,0.,0.,0.,0.,0.,0.
 ,0.,0.,0.,0.,0.,0.,0.,0.,0.,0.,0.,0.,0.,0.,0.,0.,0.,0.,0.,0.,0.,0.,0.,
 0.,0.,0.,0.,0.,0.,0.,0.,0.,0.,0.,0.,0.,0.,0.,0.,0.,0.,0.,0.,0.,0.,0.,0
 .,0.,0.,0.,0.,0.,0.,0.,0.,0.,0.,0.,0.,0.,0.,0.,0.,0.,0.,0.,0.,0.,0.,0.
 ,0.,0.,0.,0.,0.,0.,0.,0.,0.,0.,0.,0.,0.,0.,0.,0.,0.,0.,0.,0.,0.,0.,0.,
 0.,0.,0.,0.,0.,0.,0.,0.,0.,0.,0.,0.,0.,0.,0.,0.,0.,0.,0.,0.,0.,0.,0.,0
 .,0.,0.,0.,0.,0.,0.,0.,0.,0.,0.,0.,0.,0.,0.,0.,0.,0.,0.,0.,0.,0.,0.,0.
 ,0.,0.,0.,0.,0.,0.,0.,0.,0.,0.,0.,0.,0.,0.,0.,0.,0.,0.,0.,0.,0.,0.,0.,
 0.,0.,0.,0.,0.,0.,0.,0.,0.,0.,0.,0.,0.,0.,0.,0.,0.,0.,0.,0.,0.,0.,0.,0
 .,0.,0.,0.,0.,0.,0.,0.,0.,0.,0.,0.,0.,0.,0.,0.,0.,0.,0.,0.,0.,0.,0.,0.
 ,0.,0.,0.,0.,0.,0.,0.,0.,0.,0.,0.,0.,0.,0.,0.,0.,0.,0.,0.,0.,0.,0.,0.,
 0.,0.,0.,0.,0.,0.,0.,0.,0.,0.,0.,0.,0.,0.,0.,0.,0.,0.,0.,0.,0.,0.,0.,0
 .,0.,0.,0.,0.,0.,0.,0.,0.,0.,0.,0.,0.,0.,0.,0.,0.,0.,0.,0.,0.,0.,0.,0.
 ,0.,0.,0.,0.,0.,0.,0.,0.,0.,0.,0.,0.,0.,0.,0.,0.,0.,0.,0.,0.,0.,0.,0.,
 0.,0.,0.,0.,0.,0.,0.,0.,0.,0.,0.,0.,0.,0.,0.,0.,0.,0.,0.,0.,0.,0.,0.,0
 .,0.,0.,0.,0.,0.,0.,0.,0.,0.,0.,0.,0.,0.,0.,0.,0.,0.,0.,0.,0.,0.,0.,0.
 ,0.,0.,0.,0.,0.,0.,0.,0.,0.,0.,0.,0.,0.,0.,0.,0.,0.,0.,0.,0.,0.,0.,0.,
 0.,0.,0.,0.,0.,0.,0.,0.,0.,0.,0.,0.,0.,0.,0.,0.,0.,0.,0.,0.,0.,0.,0.,0
 .,0.,0.,0.,0.,0.,0.,0.,0.,0.,0.,0.,0.,0.,0.,0.,0.,0.,0.,0.,0.,0.,0.,0.
 ,0.,0.,0.,0.,0.,0.,0.,0.,0.,0.,0.,0.,0.,0.,0.,0.,0.,0.,0.,0.,0.,0.,0.,
 0.,0.,0.,0.,0.,0.,0.,0.,0.,0.,0.,0.,0.,0.,0.,0.,0.,0.,0.,0.,0.,0.,0.,0
 .,0.,0.,0.,0.,0.,0.,0.,0.,0.,0.,0.,0.,0.,0.,0.,0.,0.,0.,0.,0.,0.,0.,0.
 ,0.,0.,0.,0.,0.,0.,0.,0.,0.,0.,0.,0.,0.,0.,0.,0.,0.,0.,0.,0.,0.,0.,0.,
 0.,0.,0.,0.,0.,0.,0.,0.,0.,0.,0.,0.,0.,0.,0.,0.,0.,0.,0.,0.,0.,0.,0.,0
 .,0.,0.,0.,0.,0.,0.,0.,0.,0.,0.,0.,0.,0.,0.,0.,0.,0.,0.,0.,0.,0.,0.,0.
 ,0.,0.,0.,0.,0.,0.,0.,0.,0.,0.,0.,0.,0.,0.,0.,0.,0.,0.,0.,0.,0.,0.,0.,
 0.,0.,0.,0.,0.,0.,0.,0.,0.,0.,0.,0.,0.,0.,0.,0.,0.,0.,0.,0.,0.,0.,0.,0
 .,0.,0.,0.,0.,0.,0.,0.,0.,0.,0.,0.,0.,0.,0.,0.,0.,0.,0.,0.,0.,0.,0.,0.
 ,0.,0.,0.,0.,0.,0.,0.,0.,0.,0.,0.,0.,0.,0.,0.,0.,0.,0.,0.,0.,0.,0.,0.,
 0.,0.,0.,0.,0.,0.,0.,0.,0.,0.,0.,0.,0.,0.,0.,0.,0.,0.,0.,0.,0.,0.,0.,0
 .,0.,0.,0.,0.,0.,0.,0.,0.,0.,0.,0.,0.,0.,0.,0.,0.,0.,0.,0.,0.,0.,0.,0.
 ,0.,0.,0.,0.,0.,0.,0.,0.,0.,0.,0.,0.,0.,0.,0.,0.,0.,0.,0.,0.,0.,0.,0.,
 0.,0.,0.,0.,0.,0.,0.,0.,0.,0.,0.,0.,0.,0.,0.,0.,0.,0.,0.,0.,0.,0.,0.,0
 .,0.,0.,0.,0.,0.,0.,0.,0.,0.,0.,0.,0.,0.,0.,0.,0.,0.,0.,0.,0.,0.,0.,0.
 ,0.,0.,0.,0.,0.,0.,0.,0.,0.,0.,0.,0.,0.,0.,0.,0.,0.,0.,0.,0.,0.,0.,0.,
 0.,0.,0.,0.,0.,0.,0.,0.,0.,0.,0.,0.,0.,0.,0.,0.,0.,0.,0.,0.,0.,0.,0.,0
 .,0.,0.,0.,0.,0.,0.,0.,0.,0.,0.,0.,0.,0.,0.,0.,0.,0.,0.,0.,0.,0.,0.,0.
 ,0.,0.,0.,0.,0.,0.,0.,0.,0.,0.,0.,0.,0.,0.,0.,0.,0.,0.,0.,0.,0.,0.,0.,
 0.,0.,0.,0.,0.,0.,0.,0.,0.,0.,0.,0.,0.,0.,0.,0.,0.,0.,0.,0.,0.,0.,0.,0
 .,0.,0.,0.,0.,0.,0.,0.,0.,0.,0.,0.,0.,0.,0.,0.,0.,0.,0.,0.,0.,0.,0.,0.
 ,0.,0.,0.,0.,0.,0.,0.,0.,0.,0.,0.,0.,0.,0.,0.,0.,0.,0.,0.,0.,0.,0.,0.,
 0.,0.,0.,0.,0.,0.,0.,0.,0.,0.,0.,0.,0.,0.,0.,0.,0.,0.,0.,0.,0.,0.,0.,0
 .,0.,0.,0.,0.,0.,0.,0.,0.,0.,0.,0.,0.,0.,0.,0.,0.,0.,0.,0.,0.,0.,0.,0.
 ,0.,0.,0.,0.,0.,0.,0.,0.,0.,0.,0.,0.,0.,0.,0.,0.,0.,0.,0.,0.,0.,0.,0.,
 0.,0.,0.,0.,0.,0.,0.,0.,0.,0.,0.,0.,0.,0.,0.,0.,0.,0.,0.,0.,0.,0.,0.,0
 .,0.,0.,0.,0.,0.,0.,0.,0.,0.,0.,0.,0.,0.,0.,0.,0.,0.,0.,0.,0.,0.,0.,0.
 ,0.,0.,0.,0.,0.,0.,0.,0.,0.,0.,0.,0.,0.,0.,0.,0.,0.,0.,0.,0.,0.,0.,0.,
 0.,0.,0.,0.,0.,0.,0.,0.,0.,0.,0.,0.,0.,0.,0.,0.,0.,0.,0.,0.,0.,0.,0.,0
 .,0.,0.,0.,0.,0.,0.,0.,0.,0.,0.,0.,0.,0.,0.,0.,0.,0.,0.,0.,0.,0.,0.,0.
 ,0.,0.,0.,0.,0.,0.,0.,0.,0.,0.,0.,0.,0.,0.,0.,0.,0.,0.,0.,0.,0.,0.,0.,
 0.,0.,0.,0.,0.,0.,0.,0.,0.,0.,0.,0.,0.,0.,0.,0.,0.,0.,0.,0.,0.,-0.0009
 0566,0.00045604,0.00053265,0.,0.,0.,-0.00209580,0.00063692,-0.00063922
 ,0.,0.,0.,0.,0.,0.,0.00458077,0.00036261,-0.00042580,-0.00098058,-0.00
 067945,-0.00036595,0.,0.,0.,-0.00150768,-0.00083711,0.00094728,0.,0.,0
 .,0.,0.,0.,0.,0.,0.,0.,0.,0.,0.,0.,0.,0.,0.,0.,0.,0.,0.,0.,0.,0.,0.,0.
 ,0.,0.,0.,0.,0.,0.,0.,0.,0.,0.,0.,0.,0.,0.,0.,0.,0.,0.,0.,0.,0.,0.,0.,
 0.,0.,0.,0.,0.,0.00001744,0.00008699,0.00011046,-0.00014621,0.00011821
 ,-0.00010781,0.00032825,-0.00079085,-0.00030177,0.00001856,0.00082203,
 0.00116365,0.00028400,-0.00042439,-0.00048942,-0.00738604,-0.00576826,
 -0.00355138,0.00545950,0.01346044,-0.01329942,-0.00596548,-0.00560241,
 0.01394084,-0.00000491,-0.00002567,0.00006566,0.00001842,-0.00003281,-
 0.00001824,0.00004400,-0.00005007,0.00005003,-0.00002450,0.00019000,-0
 .00003263,-0.00002102,0.00004407,-0.00000520,-0.00042420,0.00050454,0.
 00034954,0.00025621,-0.00007590,-0.00007774,0.00086723,0.00016317,0.00
 073855,-0.00305092,-0.00258632,0.00199493,-0.00332027,-0.00673628,0.00
 518015,0.,0.,0.,0.,0.,0.,0.,0.,0.,0.,0.,0.,0.,0.,0.,0.,0.,0.,0.,0.,0.,
 0.,0.,0.,0.,0.,0.,0.,0.,0.,0.,0.,0.,0.,0.,0.,0.,0.,0.,0.,0.,0.,0.,0.,0
 .,0.,0.,0.,0.,0.,0.,0.,0.,0.,0.,0.,0.,0.,0.,0.,0.,0.,0.,0.,0.,0.,0.,0.
 ,0.,0.,0.,0.,0.,0.,0.,0.,0.,0.,0.,0.,0.,0.,0.,0.,0.,0.,0.,0.01113532,0
 .,0.,0.,0.,0.,0.,-0.00071496,0.00056109,0.00035850,0.,0.,0.,-0.0015918
 0,0.00112955,-0.00088565,0.,0.,0.,0.,0.,0.,0.00480168,-0.00040680,-0.0
 0000158,-0.00101145,-0.00042399,-0.00034815,0.,0.,0.,-0.00163171,-0.00
 072757,0.00093926,0.,0.,0.,0.,0.,0.,0.,0.,0.,0.,0.,0.,0.,0.,0.,0.,0.,0
 .,0.,0.,0.,0.,0.,0.,0.,0.,0.,0.,0.,0.,0.,0.,0.,0.,0.,0.,0.,0.,0.,0.,0.
 ,0.,0.,0.,0.,0.,0.,0.,0.,0.,0.,0.,0.,0.,-0.00000064,0.00008796,0.00001
 318,-0.00004466,0.00016595,0.00000735,0.00006693,-0.00066488,0.0000027
 3,0.00013320,0.00150329,-0.00029779,-0.00024221,-0.00170409,0.00000283
 ,-0.00565935,-0.00706045,-0.00337193,0.01341075,0.00466679,-0.01297457
 ,-0.00857199,-0.00271168,0.01358937,0.00000044,-0.00004378,0.00002112,
 0.00000961,-0.00003852,-0.00000743,0.00001349,-0.00005784,0.00001938,0
 .00004533,0.00025771,-0.00002923,-0.00002155,0.00001439,-0.00000812,0.
 00046959,0.00109946,0.00053852,0.00002102,-0.00000839,0.00011202,0.000
 70203,0.00039065,0.00004888,-0.00718502,-0.00392717,0.00509238,-0.0019
 2998,-0.00308753,0.00213091,0.,0.,0.,0.,0.,0.,0.,0.,0.,0.,0.,0.,0.,0.,
 0.,0.,0.,0.,0.,0.,0.,0.,0.,0.,0.,0.,0.,0.,0.,0.,0.,0.,0.,0.,0.,0.,0.,0
 .,0.,0.,0.,0.,0.,0.,0.,0.,0.,0.,0.,0.,0.,0.,0.,0.,0.,0.,0.,0.,0.,0.,0.
 ,0.,0.,0.,0.,0.,0.,0.,0.,0.,0.,0.,0.,0.,0.,0.,0.,0.,0.,0.,0.,0.,0.,0.,
 0.,0.,0.,0.00663124,0.01096578,0.,0.,0.,0.,0.,0.,0.00101890,-0.0003636
 6,-0.00030336,0.,0.,0.,0.00159735,-0.00074194,0.00123520,0.,0.,0.,0.,0
 .,0.,-0.00459699,-0.00017476,-0.00051363,0.00081106,0.00049986,0.00051
 512,0.,0.,0.,0.00161282,0.00082295,-0.00083633,0.,0.,0.,0.,0.,0.,0.,0.
 ,0.,0.,0.,0.,0.,0.,0.,0.,0.,0.,0.,0.,0.,0.,0.,0.,0.,0.,0.,0.,0.,0.,0.,
 0.,0.,0.,0.,0.,0.,0.,0.,0.,0.,0.,0.,0.,0.,0.,0.,0.,0.,0.,0.,0.,0.,0.,-
 0.00000466,-0.00008726,-0.00014658,0.00009896,-0.00012763,0.00011707,-
 0.00063425,0.00101652,0.00053786,0.00059315,-0.00063009,-0.00163606,-0
 .00056234,-0.00057452,0.00075493,0.00643645,0.00637897,0.00435310,-0.0
 1195447,-0.01178918,0.00171888,0.00964610,0.00660439,-0.01088076,0.000
 00960,0.00002545,-0.00007805,0.00001279,0.00002513,0.00001641,-0.00001
 787,0.00005728,0.00000705,-0.00000296,-0.00016754,0.00002161,0.0001231
 1,-0.00007132,-0.00003008,0.00032714,0.00049077,-0.00053740,0.00030193
 ,0.00022561,-0.00025527,-0.00059851,-0.00045462,0.00040355,0.00243097,
 0.00218866,-0.00194003,0.00156301,0.00192301,-0.00153241,0.,0.,0.,0.,0
 .,0.,0.,0.,0.,0.,0.,0.,0.,0.,0.,0.,0.,0.,0.,0.,0.,0.,0.,0.,0.,0.,0.,0.
 ,0.,0.,0.,0.,0.,0.,0.,0.,0.,0.,0.,0.,0.,0.,0.,0.,0.,0.,0.,0.,0.,0.,0.,
 0.,0.,0.,0.,0.,0.,0.,0.,0.,0.,0.,0.,0.,0.,0.,0.,0.,0.,0.,0.,0.,0.,0.,0
 .,0.,0.,0.,0.,0.,0.,0.,0.,0.,0.,0.,0.,-0.00579545,-0.00498788,0.009143
 67\\0.,0.,0.,0.,0.,0.,0.,0.,0.,0.,0.,0.,0.,0.,0.,0.,0.,0.,0.,0.,0.,-0.
 00000002,0.,0.00000001,0.,0.,0.,0.,0.,0.,0.,0.,0.,0.,0.,0.,0.,0.,0.,0.
 ,0.,0.,0.,0.,0.,0.,0.,0.,0.,0.,0.,0.,0.,0.,0.,0.,0.,0.,0.,0.,0.,0.,0.,
 0.,0.,0.,0.,0.,0.,0.,0.,0.,0.,0.,0.,0.,0.,0.,0.,0.,0.,0.,0.,0.,0.,0.,0
 .,0.,0.,0.,0.,0.,0.,0.,0.,0.,0.,0.,-0.00000001,0.,0.,0.,0.,0.00000002,
 -0.00000003,0.00000001,0.,-0.00000002,0.,0.,0.00000002,0.,0.,0.,0.,0.,
 0.,0.,0.,0.,0.,0.,0.,0.,0.,0.,0.,0.,0.,0.00000001,0.,0.,0.,0.,0.,-0.00
 000001,0.,0.,0.00000001,0.,0.,0.,0.,0.,0.,0.,0.,0.,0.,0.,0.,0.,0.,0.,0
 .,0.,0.,0.,0.,0.,0.,0.,0.,0.,0.,0.,0.,0.,0.,0.,0.,0.,0.,0.,0.,0.,0.,0.
 ,0.,0.,0.,0.,0.,0.,0.,0.,0.,0.,0.,0.,0.,0.,0.,0.,0.,0.,0.,0.,0.,0.,0.,
 0.,0.,0.,0.,0.,0.,0.,0.,0.,0.,0.,0.,0.,0.,0.,0.,0.,0.,0.,0.,0.,0.,0.,0
 .,0.,0.,0.,0.,0.,0.\\\@
 The archive entry for this job was punched.


 BOOKS ARE LIGHTHOUSES ERECTED IN THE GREAT SEA OF TIME.
     -- E.P.WHIPPLE
 Job cpu time:       0 days  8 hours 30 minutes 58.6 seconds.
 Elapsed time:       0 days  0 hours 25 minutes 39.5 seconds.
 File lengths (MBytes):  RWF=   3087 Int=      0 D2E=      0 Chk=     60 Scr=      1
 Normal termination of Gaussian 16 at Wed Jun 28 02:42:13 2023.
