 Entering Gaussian System, Link 0=g16
 Input=4_test_opt_freq_from_IRC.com
 Output=4_test_opt_freq_from_IRC.log
 Initial command:
 /apps/commercial/G16/g16.linda/l1.exe "/scratch/x2608a02/Gau-33045.inp" -scrdir="/scratch/x2608a02/"
 Default linda workers: node4057,node4058
 Default is to use  64 SMP processors on each worker.
 Entering Link 1 = /apps/commercial/G16/g16.linda/l1.exe PID=     33046.
  
 Copyright (c) 1988,1990,1992,1993,1995,1998,2003,2009,2016,
            Gaussian, Inc.  All Rights Reserved.
  
 This is part of the Gaussian(R) 16 program.  It is based on
 the Gaussian(R) 09 system (copyright 2009, Gaussian, Inc.),
 the Gaussian(R) 03 system (copyright 2003, Gaussian, Inc.),
 the Gaussian(R) 98 system (copyright 1998, Gaussian, Inc.),
 the Gaussian(R) 94 system (copyright 1995, Gaussian, Inc.),
 the Gaussian 92(TM) system (copyright 1992, Gaussian, Inc.),
 the Gaussian 90(TM) system (copyright 1990, Gaussian, Inc.),
 the Gaussian 88(TM) system (copyright 1988, Gaussian, Inc.),
 the Gaussian 86(TM) system (copyright 1986, Carnegie Mellon
 University), and the Gaussian 82(TM) system (copyright 1983,
 Carnegie Mellon University). Gaussian is a federally registered
 trademark of Gaussian, Inc.
  
 This software contains proprietary and confidential information,
 including trade secrets, belonging to Gaussian, Inc.
  
 This software is provided under written license and may be
 used, copied, transmitted, or stored only in accord with that
 written license.
  
 The following legend is applicable only to US Government
 contracts under FAR:
  
                    RESTRICTED RIGHTS LEGEND
  
 Use, reproduction and disclosure by the US Government is
 subject to restrictions as set forth in subparagraphs (a)
 and (c) of the Commercial Computer Software - Restricted
 Rights clause in FAR 52.227-19.
  
 Gaussian, Inc.
 340 Quinnipiac St., Bldg. 40, Wallingford CT 06492
  
  
 ---------------------------------------------------------------
 Warning -- This program may not be used in any manner that
 competes with the business of Gaussian, Inc. or will provide
 assistance to any competitor of Gaussian, Inc.  The licensee
 of this program is prohibited from giving any competitor of
 Gaussian, Inc. access to this program.  By using this program,
 the user acknowledges that Gaussian, Inc. is engaged in the
 business of creating and licensing software in the field of
 computational chemistry and represents and warrants to the
 licensee that it is not a competitor of Gaussian, Inc. and that
 it will not use this program in any manner prohibited above.
 ---------------------------------------------------------------
  

 Cite this work as:
 Gaussian 16, Revision A.03,
 M. J. Frisch, G. W. Trucks, H. B. Schlegel, G. E. Scuseria, 
 M. A. Robb, J. R. Cheeseman, G. Scalmani, V. Barone, 
 G. A. Petersson, H. Nakatsuji, X. Li, M. Caricato, A. V. Marenich, 
 J. Bloino, B. G. Janesko, R. Gomperts, B. Mennucci, H. P. Hratchian, 
 J. V. Ortiz, A. F. Izmaylov, J. L. Sonnenberg, D. Williams-Young, 
 F. Ding, F. Lipparini, F. Egidi, J. Goings, B. Peng, A. Petrone, 
 T. Henderson, D. Ranasinghe, V. G. Zakrzewski, J. Gao, N. Rega, 
 G. Zheng, W. Liang, M. Hada, M. Ehara, K. Toyota, R. Fukuda, 
 J. Hasegawa, M. Ishida, T. Nakajima, Y. Honda, O. Kitao, H. Nakai, 
 T. Vreven, K. Throssell, J. A. Montgomery, Jr., J. E. Peralta, 
 F. Ogliaro, M. J. Bearpark, J. J. Heyd, E. N. Brothers, K. N. Kudin, 
 V. N. Staroverov, T. A. Keith, R. Kobayashi, J. Normand, 
 K. Raghavachari, A. P. Rendell, J. C. Burant, S. S. Iyengar, 
 J. Tomasi, M. Cossi, J. M. Millam, M. Klene, C. Adamo, R. Cammi, 
 J. W. Ochterski, R. L. Martin, K. Morokuma, O. Farkas, 
 J. B. Foresman, and D. J. Fox, Gaussian, Inc., Wallingford CT, 2016.
 
 ******************************************
 Gaussian 16:  ES64L-G16RevA.03 25-Dec-2016
                25-Jun-2023 
 ******************************************
 %nprocshared=64
 Will use up to   64 processors via shared memory.
 %mem=64GB
 %chk=4_test_opt_freq_from_IRC.chk
 SetLPE:    new flags="-opt 'Tsnet.Node.lindarsharg: ssh'  -nodelist 'node4057 node4058' -env GAUSS_MDEF=8589934592 -env GAUSS_EXEDIR="/apps/commercial/G16/g16.linda""
 Will use up to    2 processors via Linda.
 ----------------------------------------------------------------------
 # opt=(calcall,tight,cartesian) freq b3lyp/gen nosymm scf=(qc,maxcycle
 =1024) pseudo=read
 ----------------------------------------------------------------------
 1/7=10,10=4,18=10,26=3,38=1/1,3;
 2/12=2,15=1,17=6,18=5,29=2,40=1/2;
 3/5=7,11=2,16=1,17=8,25=1,30=1,71=2,74=-5,140=1/1,2,3;
 4//1;
 5/5=2,7=1024,8=3,38=5/8;
 8/6=4,10=90,11=11/1;
 11/6=1,8=1,9=11,15=111,16=1,31=1/1,2,10;
 10/6=1,31=1/2;
 6/7=2,8=2,9=2,10=2,18=1,28=1/1;
 7/7=1,10=1,25=1,30=1/1,2,3,16;
 1/7=10,10=4,18=10,26=3/3(3);
 2/15=1,29=1/2;
 7/7=1,8=1,9=1,25=1,30=1,44=-1/16;
 99/12=1/99;
 2/15=1,29=1/2;
 3/5=7,6=1,11=2,16=1,17=8,25=1,30=1,71=2,74=-5,82=7,140=1/1,2,3;
 4/5=5,16=3,69=1/1;
 5/5=2,7=1024,8=3,38=5/8;
 8/6=4,10=90,11=11/1;
 11/6=1,8=1,9=11,15=111,16=1,31=1/1,2,10;
 10/6=1,31=1/2;
 7/7=1,10=1,25=1,30=1/1,2,3,16;
 1/7=10,10=4,18=10,26=3/3(-8);
 2/15=1,29=1/2;
 6/7=2,8=2,9=2,10=2,18=1,19=2,28=1/1;
 7/7=1,8=1,9=1,25=1,30=1,44=-1/16;
 99/12=1/99;
 ------------------------
 4_test_opt_freq_from_IRC
 ------------------------
 Symbolic Z-matrix:
 Charge =  0 Multiplicity = 1
 Zn                   -1   -4.69449  -2.52891   2.32632 
 O                    -1   -4.60002  -0.93173   3.63136 
 O                    0    -2.34277  -0.85578   3.53999 
 O                    -1   -3.7714   -1.27973   0.82823 
 O                    0    -1.52197  -1.10487   0.67121 
 C                    -1   -3.46123  -0.46882   3.94274 
 C                    -1   -2.70354  -0.84264   0.32124 
 Zn                   0    -1.14328  -2.43254   2.22186 
 O                    0    -2.28244  -3.99321   0.96856 
 O                    -1   -4.53935  -4.11556   1.01425 
 O                    0    -1.33195  -3.69476   3.80277 
 O                    -1   -3.59321  -3.69443   3.77059 
 C                    -1   -3.3849   -4.48478   0.64137 
 C                    -1   -2.46758  -4.0416    4.21874 
 H                    -1   -3.45541   0.38383   4.64232 
 H                    -1   -2.79074  -0.14615  -0.52756 
 H                    -1   -3.34703  -5.33554  -0.0595 
 H                    -1   -2.45197  -4.74051   5.06989 
 C                    -1   -7.53384  -1.75151   3.14439 
 C                    -1   -8.92519  -1.77977   3.20973 
 C                    -1   -9.61549  -2.73787   2.46521 
 C                    -1   -8.88946  -3.63544   1.68034 
 C                    -1   -7.49932  -3.5449    1.66652 
 N                    -1   -6.83449  -2.61908   2.38606 
 H                    -1   -10.70019  -2.78423   2.49611 
 H                    -1   -6.94295  -1.03037   3.70008 
 H                    -1   -9.44925  -1.06304   3.8329 
 H                    -1   -9.38507  -4.39575   1.08621 
 H                    -1   -6.88162  -4.21449   1.07654 
 C                    0     0.09947   1.16035   6.84411 
 C                    0     0.99405   1.08874   5.85314 
 C                    0     0.64699   1.04586   4.39267 
 O                    0     1.41778   0.0399    3.76125 
 C                    0     1.24797   0.02517   2.34303 
 C                    0     1.67131  -1.346     1.80019 
 C                    0     1.71054  -1.35876   0.26404 
 O                    0     0.8169   -2.37544   2.13476 
 H                    0     0.40577   1.22221   7.88526 
 H                    0    -0.97078   1.14315   6.64621 
 H                    0     2.06161   1.07554   6.07785 
 H                    0     0.87734   2.03187   3.94036 
 H                    0    -0.42716   0.85188   4.25118 
 H                    0     1.85357   0.83182   1.89687 
 H                    0     0.19341   0.19643   2.08455 
 H                    0     2.69063  -1.54632   2.18258 
 H                    0     1.99397  -2.34563  -0.09259 
 H                    0     0.77013  -1.03158  -0.17591 
 N                    -1    9.32365   7.87859  -9.41833 
 C                    -1    8.77519   8.66629  -10.62748 
 C                    -1    7.27043   8.62289  -10.87255 
 H                    -1    9.31304   8.2707   -11.50121 
 H                    -1    9.07822   9.7019   -10.45098 
 H                    -1    7.10358   9.15702  -11.81342 
 H                    -1    6.88374   7.6137   -11.01372 
 H                    -1    6.68334   9.12889  -10.10025 
 C                    -1    8.3918    8.04929  -8.23166 
 C                    -1    8.83977   7.40494  -6.92222 
 H                    -1    7.42815   7.64083  -8.53166 
 H                    -1    8.26601   9.12853  -8.10365 
 H                    -1    8.06075   7.5952   -6.17719 
 H                    -1    8.95072   6.32106  -7.00604 
 H                    -1    9.77023   7.82471  -6.53281 
 C                    -1    10.68837   8.48329  -9.05489 
 C                    -1    11.65487   8.71425  -10.21454 
 H                    -1    11.12876   7.80114  -8.32636 
 H                    -1    10.46651   9.42567  -8.54406 
 H                    -1    12.64171   8.90747  -9.78094 
 H                    -1    11.73079   7.86425  -10.89914 
 H                    -1    11.37934   9.58313  -10.81558 
 C                    -1    9.55968   6.39601  -9.75557 
 C                    -1    8.33127   5.54396  -10.04222 
 H                    -1    10.11973   5.99722  -8.90738 
 H                    -1    10.18644   6.39166  -10.65626 
 H                    -1    8.68431   4.51032  -10.11399 
 H                    -1    7.56308   5.57545  -9.26272 
 H                    -1    7.89699   5.78487  -11.01342 
 Br                   0     3.12509  -0.13543  -0.59576 
 

 GradGradGradGradGradGradGradGradGradGradGradGradGradGradGradGradGradGrad
 Berny optimization.
 Initialization pass.
 No Z-matrix variables, so optimization will use Cartesian coordinates.
 Trust Radius=3.00D-01 FncErr=1.00D-07 GrdErr=1.00D-06 EigMax=2.50D+02 EigMin=1.00D-04
 Number of steps in this run=    241 maximum allowed number of steps=    462.
 GradGradGradGradGradGradGradGradGradGradGradGradGradGradGradGradGradGrad

 Symmetry turned off by external request.
 Stoichiometry    C23H39BrN2O10Zn2
 Framework group  C1[X(C23H39BrN2O10Zn2)]
 Deg. of freedom   225
 Full point group                 C1      NOp   1
                          Input orientation:                          
 ---------------------------------------------------------------------
 Center     Atomic      Atomic             Coordinates (Angstroms)
 Number     Number       Type             X           Y           Z
 ---------------------------------------------------------------------
      1         30           0       -4.694489   -2.528905    2.326317
      2          8           0       -4.600022   -0.931734    3.631360
      3          8           0       -2.342767   -0.855779    3.539989
      4          8           0       -3.771400   -1.279734    0.828231
      5          8           0       -1.521972   -1.104872    0.671212
      6          6           0       -3.461226   -0.468815    3.942742
      7          6           0       -2.703539   -0.842639    0.321243
      8         30           0       -1.143278   -2.432543    2.221860
      9          8           0       -2.282442   -3.993213    0.968558
     10          8           0       -4.539354   -4.115561    1.014246
     11          8           0       -1.331950   -3.694760    3.802765
     12          8           0       -3.593209   -3.694425    3.770586
     13          6           0       -3.384903   -4.484776    0.641370
     14          6           0       -2.467582   -4.041605    4.218740
     15          1           0       -3.455408    0.383834    4.642316
     16          1           0       -2.790739   -0.146153   -0.527563
     17          1           0       -3.347035   -5.335536   -0.059501
     18          1           0       -2.451967   -4.740511    5.069891
     19          6           0       -7.533844   -1.751514    3.144391
     20          6           0       -8.925190   -1.779770    3.209727
     21          6           0       -9.615492   -2.737870    2.465207
     22          6           0       -8.889458   -3.635442    1.680343
     23          6           0       -7.499316   -3.544901    1.666524
     24          7           0       -6.834486   -2.619084    2.386057
     25          1           0      -10.700185   -2.784227    2.496111
     26          1           0       -6.942948   -1.030371    3.700081
     27          1           0       -9.449248   -1.063042    3.832903
     28          1           0       -9.385065   -4.395750    1.086214
     29          1           0       -6.881618   -4.214494    1.076539
     30          6           0        0.099472    1.160350    6.844107
     31          6           0        0.994047    1.088739    5.853142
     32          6           0        0.646987    1.045861    4.392668
     33          8           0        1.417775    0.039895    3.761254
     34          6           0        1.247970    0.025167    2.343028
     35          6           0        1.671311   -1.346004    1.800189
     36          6           0        1.710538   -1.358755    0.264037
     37          8           0        0.816895   -2.375442    2.134757
     38          1           0        0.405767    1.222211    7.885261
     39          1           0       -0.970780    1.143147    6.646214
     40          1           0        2.061608    1.075544    6.077851
     41          1           0        0.877342    2.031866    3.940359
     42          1           0       -0.427159    0.851876    4.251177
     43          1           0        1.853571    0.831824    1.896865
     44          1           0        0.193412    0.196431    2.084547
     45          1           0        2.690628   -1.546320    2.182578
     46          1           0        1.993969   -2.345631   -0.092594
     47          1           0        0.770129   -1.031577   -0.175907
     48          7           0        9.323654    7.878593   -9.418327
     49          6           0        8.775192    8.666291  -10.627481
     50          6           0        7.270430    8.622886  -10.872553
     51          1           0        9.313044    8.270702  -11.501210
     52          1           0        9.078220    9.701899  -10.450984
     53          1           0        7.103577    9.157016  -11.813418
     54          1           0        6.883739    7.613699  -11.013723
     55          1           0        6.683343    9.128889  -10.100249
     56          6           0        8.391804    8.049291   -8.231660
     57          6           0        8.839774    7.404936   -6.922216
     58          1           0        7.428152    7.640829   -8.531655
     59          1           0        8.266006    9.128533   -8.103645
     60          1           0        8.060745    7.595195   -6.177194
     61          1           0        8.950718    6.321056   -7.006041
     62          1           0        9.770233    7.824714   -6.532814
     63          6           0       10.688373    8.483285   -9.054888
     64          6           0       11.654868    8.714255  -10.214541
     65          1           0       11.128756    7.801136   -8.326361
     66          1           0       10.466507    9.425674   -8.544057
     67          1           0       12.641714    8.907473   -9.780939
     68          1           0       11.730791    7.864246  -10.899138
     69          1           0       11.379340    9.583125  -10.815579
     70          6           0        9.559677    6.396005   -9.755568
     71          6           0        8.331274    5.543955  -10.042216
     72          1           0       10.119726    5.997221   -8.907378
     73          1           0       10.186439    6.391655  -10.656259
     74          1           0        8.684305    4.510323  -10.113993
     75          1           0        7.563082    5.575454   -9.262716
     76          1           0        7.896991    5.784870  -11.013421
     77         35           0        3.125091   -0.135431   -0.595756
 ---------------------------------------------------------------------
 Rotational constants (GHZ):           0.1001516           0.0113192           0.0108045
 General basis read from cards:  (5D, 7F)
 ======================================================================================================
                                       Pseudopotential Parameters
 ======================================================================================================
  Center     Atomic      Valence      Angular      Power
  Number     Number     Electrons     Momentum     of R      Exponent        Coefficient   SO-Coeffient
 ======================================================================================================
    1         30           12
                                      F and up 
                                                     1      386.7379660      -18.00000000    0.00000000
                                                     2       72.8587359     -124.35274030    0.00000000
                                                     2       15.9066170      -30.66018220    0.00000000
                                                     2        4.3502340      -10.63589890    0.00000000
                                                     2        1.2842199       -0.76836230    0.00000000
                                      S - F
                                                     0       19.0867858        3.00000000    0.00000000
                                                     1        5.0231080       22.52342250    0.00000000
                                                     2        1.2701744       48.44659420    0.00000000
                                                     2        1.0671287      -44.55601190    0.00000000
                                                     2        0.9264190       12.99839580    0.00000000
                                      P - F
                                                     0       43.4927750        5.00000000    0.00000000
                                                     1       20.8692669       20.74355890    0.00000000
                                                     2       21.7118378       90.30271580    0.00000000
                                                     2        6.3616915       74.66103160    0.00000000
                                                     2        1.2291195        9.88944240    0.00000000
                                      D - F
                                                     2       13.5851800       -4.84903590    0.00000000
                                                     2        9.8373050        3.69133790    0.00000000
                                                     2        0.8373113       -0.50373190    0.00000000
    2          8
                                   No pseudopotential on this center.
    3          8
                                   No pseudopotential on this center.
    4          8
                                   No pseudopotential on this center.
    5          8
                                   No pseudopotential on this center.
    6          6
                                   No pseudopotential on this center.
    7          6
                                   No pseudopotential on this center.
    8         30           12
                                      F and up 
                                                     1      386.7379660      -18.00000000    0.00000000
                                                     2       72.8587359     -124.35274030    0.00000000
                                                     2       15.9066170      -30.66018220    0.00000000
                                                     2        4.3502340      -10.63589890    0.00000000
                                                     2        1.2842199       -0.76836230    0.00000000
                                      S - F
                                                     0       19.0867858        3.00000000    0.00000000
                                                     1        5.0231080       22.52342250    0.00000000
                                                     2        1.2701744       48.44659420    0.00000000
                                                     2        1.0671287      -44.55601190    0.00000000
                                                     2        0.9264190       12.99839580    0.00000000
                                      P - F
                                                     0       43.4927750        5.00000000    0.00000000
                                                     1       20.8692669       20.74355890    0.00000000
                                                     2       21.7118378       90.30271580    0.00000000
                                                     2        6.3616915       74.66103160    0.00000000
                                                     2        1.2291195        9.88944240    0.00000000
                                      D - F
                                                     2       13.5851800       -4.84903590    0.00000000
                                                     2        9.8373050        3.69133790    0.00000000
                                                     2        0.8373113       -0.50373190    0.00000000
    9          8
                                   No pseudopotential on this center.
   10          8
                                   No pseudopotential on this center.
   11          8
                                   No pseudopotential on this center.
   12          8
                                   No pseudopotential on this center.
   13          6
                                   No pseudopotential on this center.
   14          6
                                   No pseudopotential on this center.
   15          1
                                   No pseudopotential on this center.
   16          1
                                   No pseudopotential on this center.
   17          1
                                   No pseudopotential on this center.
   18          1
                                   No pseudopotential on this center.
   19          6
                                   No pseudopotential on this center.
   20          6
                                   No pseudopotential on this center.
   21          6
                                   No pseudopotential on this center.
   22          6
                                   No pseudopotential on this center.
   23          6
                                   No pseudopotential on this center.
   24          7
                                   No pseudopotential on this center.
   25          1
                                   No pseudopotential on this center.
   26          1
                                   No pseudopotential on this center.
   27          1
                                   No pseudopotential on this center.
   28          1
                                   No pseudopotential on this center.
   29          1
                                   No pseudopotential on this center.
   30          6
                                   No pseudopotential on this center.
   31          6
                                   No pseudopotential on this center.
   32          6
                                   No pseudopotential on this center.
   33          8
                                   No pseudopotential on this center.
   34          6
                                   No pseudopotential on this center.
   35          6
                                   No pseudopotential on this center.
   36          6
                                   No pseudopotential on this center.
   37          8
                                   No pseudopotential on this center.
   38          1
                                   No pseudopotential on this center.
   39          1
                                   No pseudopotential on this center.
   40          1
                                   No pseudopotential on this center.
   41          1
                                   No pseudopotential on this center.
   42          1
                                   No pseudopotential on this center.
   43          1
                                   No pseudopotential on this center.
   44          1
                                   No pseudopotential on this center.
   45          1
                                   No pseudopotential on this center.
   46          1
                                   No pseudopotential on this center.
   47          1
                                   No pseudopotential on this center.
   48          7
                                   No pseudopotential on this center.
   49          6
                                   No pseudopotential on this center.
   50          6
                                   No pseudopotential on this center.
   51          1
                                   No pseudopotential on this center.
   52          1
                                   No pseudopotential on this center.
   53          1
                                   No pseudopotential on this center.
   54          1
                                   No pseudopotential on this center.
   55          1
                                   No pseudopotential on this center.
   56          6
                                   No pseudopotential on this center.
   57          6
                                   No pseudopotential on this center.
   58          1
                                   No pseudopotential on this center.
   59          1
                                   No pseudopotential on this center.
   60          1
                                   No pseudopotential on this center.
   61          1
                                   No pseudopotential on this center.
   62          1
                                   No pseudopotential on this center.
   63          6
                                   No pseudopotential on this center.
   64          6
                                   No pseudopotential on this center.
   65          1
                                   No pseudopotential on this center.
   66          1
                                   No pseudopotential on this center.
   67          1
                                   No pseudopotential on this center.
   68          1
                                   No pseudopotential on this center.
   69          1
                                   No pseudopotential on this center.
   70          6
                                   No pseudopotential on this center.
   71          6
                                   No pseudopotential on this center.
   72          1
                                   No pseudopotential on this center.
   73          1
                                   No pseudopotential on this center.
   74          1
                                   No pseudopotential on this center.
   75          1
                                   No pseudopotential on this center.
   76          1
                                   No pseudopotential on this center.
   77         35
                                   No pseudopotential on this center.
 ======================================================================================================
   893 basis functions,  1558 primitive gaussians,   934 cartesian basis functions
   165 alpha electrons      165 beta electrons
       nuclear repulsion energy      4782.0816742707 Hartrees.
 NAtoms=   77 NActive=   77 NUniq=   77 SFac= 1.00D+00 NAtFMM=   60 NAOKFM=T Big=T
 Integral buffers will be    131072 words long.
 Raffenetti 2 integral format.
 Two-electron integral symmetry is turned off.
 One-electron integrals computed using PRISM.
   1 Symmetry operations used in ECPInt.
 ECPInt:  NShTT=   50403 NPrTT=  223596 LenC2=   26000 LenP2D=   70914.
 LDataN:  DoStor=T MaxTD1= 5 Len=  102
 NBasis=   893 RedAO= T EigKep=  7.02D-06  NBF=   893
 NBsUse=   893 1.00D-06 EigRej= -1.00D+00 NBFU=   893
 ExpMin= 3.50D-02 ExpMax= 5.74D+05 ExpMxC= 5.74D+03 IAcc=3 IRadAn=         5 AccDes= 0.00D+00
 Harris functional with IExCor=  402 and IRadAn=       5 diagonalized for initial guess.
 HarFok:  IExCor=  402 AccDes= 0.00D+00 IRadAn=         5 IDoV= 1 UseB2=F ITyADJ=14
 ICtDFT=  3500011 ScaDFX=  1.000000  1.000000  1.000000  1.000000
 FoFCou: FMM=F IPFlag=           0 FMFlag=      100000 FMFlg1=        2001
         NFxFlg=           0 DoJE=T BraDBF=F KetDBF=T FulRan=T
         wScrn=  0.000000 ICntrl=       500 IOpCl=  0 I1Cent=   200000004 NGrid=           0
         NMat0=    1 NMatS0=      1 NMatT0=    0 NMatD0=    1 NMtDS0=    0 NMtDT0=    0
 Symmetry not used in FoFCou.
 Gradient too large for Newton-Raphson -- use scaled steepest descent instead.
 Gradient too large for Newton-Raphson -- use scaled steepest descent instead.
     Accept linear search using points  2 and  3.
 Gradient too large for Newton-Raphson -- use scaled steepest descent instead.
 Gradient too large for Newton-Raphson -- use scaled steepest descent instead.
     Accept linear search using points  1 and  2.
 Gradient too large for Newton-Raphson -- use scaled steepest descent instead.
     Accept linear search using points  2 and  3.
 Gradient too large for Newton-Raphson -- use scaled steepest descent instead.
     Accept linear search using points  1 and  2.
 LinEq1:  Iter=  0 NonCon=     1 RMS=2.04D-05 Max=2.02D-03 NDo=     1
 AX will form     1 AO Fock derivatives at one time.
 LinEq1:  Iter=  1 NonCon=     1 RMS=1.14D-05 Max=1.01D-03 NDo=     1
 LinEq1:  Iter=  2 NonCon=     1 RMS=3.98D-06 Max=3.35D-04 NDo=     1
 LinEq1:  Iter=  3 NonCon=     1 RMS=2.70D-06 Max=1.94D-04 NDo=     1
 LinEq1:  Iter=  4 NonCon=     1 RMS=1.48D-06 Max=9.06D-05 NDo=     1
 LinEq1:  Iter=  5 NonCon=     1 RMS=1.03D-06 Max=6.94D-05 NDo=     1
 LinEq1:  Iter=  6 NonCon=     1 RMS=8.35D-07 Max=3.41D-05 NDo=     1
 LinEq1:  Iter=  7 NonCon=     1 RMS=4.18D-07 Max=1.75D-05 NDo=     1
 LinEq1:  Iter=  8 NonCon=     1 RMS=2.30D-07 Max=2.07D-05 NDo=     1
 LinEq1:  Iter=  9 NonCon=     1 RMS=1.54D-07 Max=1.40D-05 NDo=     1
 LinEq1:  Iter= 10 NonCon=     1 RMS=1.15D-07 Max=1.23D-05 NDo=     1
 LinEq1:  Iter= 11 NonCon=     1 RMS=6.63D-08 Max=3.54D-06 NDo=     1
 LinEq1:  Iter= 12 NonCon=     1 RMS=3.88D-08 Max=2.02D-06 NDo=     1
 LinEq1:  Iter= 13 NonCon=     1 RMS=3.15D-08 Max=2.91D-06 NDo=     1
 LinEq1:  Iter= 14 NonCon=     1 RMS=2.00D-08 Max=1.02D-06 NDo=     1
 LinEq1:  Iter= 15 NonCon=     1 RMS=1.10D-08 Max=1.05D-06 NDo=     1
 LinEq1:  Iter= 16 NonCon=     1 RMS=6.92D-09 Max=7.26D-07 NDo=     1
 LinEq1:  Iter= 17 NonCon=     0 RMS=3.93D-09 Max=3.52D-07 NDo=     1
 Linear equations converged to 4.901D-08 4.901D-07 after    17 iterations.
     Accept linear search using points  1 and  2.
     Minimum is close to point  2 DX= -4.87D-04 DF= -1.00D-11 DXR=  4.87D-04 DFR=  2.28D-07 which will be used.
 LinEq1:  Iter=  0 NonCon=     1 RMS=7.92D-08 Max=1.22D-05 NDo=     1
 LinEq1:  Iter=  1 NonCon=     1 RMS=6.39D-08 Max=6.25D-06 NDo=     1
 LinEq1:  Iter=  2 NonCon=     1 RMS=3.47D-08 Max=2.53D-06 NDo=     1
 LinEq1:  Iter=  3 NonCon=     1 RMS=2.47D-08 Max=1.83D-06 NDo=     1
 LinEq1:  Iter=  4 NonCon=     1 RMS=1.57D-08 Max=1.69D-06 NDo=     1
 LinEq1:  Iter=  5 NonCon=     1 RMS=1.04D-08 Max=1.20D-06 NDo=     1
 LinEq1:  Iter=  6 NonCon=     1 RMS=6.17D-09 Max=7.33D-07 NDo=     1
 LinEq1:  Iter=  7 NonCon=     1 RMS=4.19D-09 Max=3.89D-07 NDo=     1
 LinEq1:  Iter=  8 NonCon=     1 RMS=2.96D-09 Max=2.64D-07 NDo=     1
 LinEq1:  Iter=  9 NonCon=     1 RMS=2.02D-09 Max=2.24D-07 NDo=     1
 LinEq1:  Iter= 10 NonCon=     1 RMS=9.07D-10 Max=9.75D-08 NDo=     1
 LinEq1:  Iter= 11 NonCon=     1 RMS=5.40D-10 Max=4.62D-08 NDo=     1
 LinEq1:  Iter= 12 NonCon=     1 RMS=3.62D-10 Max=3.06D-08 NDo=     1
 LinEq1:  Iter= 13 NonCon=     1 RMS=2.32D-10 Max=1.68D-08 NDo=     1
 LinEq1:  Iter= 14 NonCon=     1 RMS=1.55D-10 Max=1.66D-08 NDo=     1
 LinEq1:  Iter= 15 NonCon=     1 RMS=9.54D-11 Max=8.65D-09 NDo=     1
 LinEq1:  Iter= 16 NonCon=     1 RMS=7.30D-11 Max=6.96D-09 NDo=     1
 LinEq1:  Iter= 17 NonCon=     1 RMS=3.99D-11 Max=3.34D-09 NDo=     1
 LinEq1:  Iter= 18 NonCon=     1 RMS=2.48D-11 Max=2.46D-09 NDo=     1
 LinEq1:  Iter= 19 NonCon=     0 RMS=1.79D-11 Max=1.23D-09 NDo=     1
 Linear equations converged to 1.977D-10 1.977D-09 after    19 iterations.
 SCF Done:  E(RB3LYP) =  -4464.47569405     a.u. after    9 cycles
            Convg  =    0.1150D-08                    55 Fock formations.
              S**2 =  0.0000                  -V/T =  1.9810
 DoSCS=F DFT=T ScalE2(SS,OS)=  1.000000  1.000000
 Range of M.O.s used for correlation:     1   893
 NBasis=   893 NAE=   165 NBE=   165 NFC=     0 NFV=     0
 NROrb=    893 NOA=   165 NOB=   165 NVA=   728 NVB=   728

 **** Warning!!: The largest alpha MO coefficient is  0.63571558D+02


 **** Warning!!: The smallest alpha delta epsilon is  0.29393953D-01

   1 Symmetry operations used in ECPInt.
 ECPInt:  NShTT=   50403 NPrTT=  223596 LenC2=   26000 LenP2D=   70914.
 LDataN:  DoStor=T MaxTD1= 6 Len=  172
 Number of processors reduced to   9 by ecpmxn.
 Symmetrizing basis deriv contribution to polar:
 IMax=3 JMax=2 DiffMx= 0.00D+00
 G2DrvN: will do    78 centers at a time, making    1 passes.
 Calling FoFCou, ICntrl=  3107 FMM=T I1Cent=   0 AccDes= 0.00D+00.
 End of G2Drv F.D. properties file   721 does not exist.
 End of G2Drv F.D. properties file   722 does not exist.
 End of G2Drv F.D. properties file   788 does not exist.
          IDoAtm=00101001101000000000000000000111111111111111111000
          IDoAtm=000000000000000000000000001
          Differentiating once with respect to electric field.
                with respect to dipole field.
          Differentiating once with respect to nuclear coordinates.
 CalDSu exits because no D1Ps are significant.
          There are    75 degrees of freedom in the 1st order CPHF.  IDoFFX=6 NUNeed=     3.
     75 vectors produced by pass  0 Test12= 1.60D-13 1.33D-09 XBig12= 3.76D+02 5.75D+00.
 AX will form    75 AO Fock derivatives at one time.
     75 vectors produced by pass  1 Test12= 1.60D-13 1.33D-09 XBig12= 1.64D+02 3.60D+00.
     75 vectors produced by pass  2 Test12= 1.60D-13 1.33D-09 XBig12= 2.46D+01 1.21D+00.
     75 vectors produced by pass  3 Test12= 1.60D-13 1.33D-09 XBig12= 2.29D+00 2.93D-01.
     75 vectors produced by pass  4 Test12= 1.60D-13 1.33D-09 XBig12= 1.58D-01 1.03D-01.
     75 vectors produced by pass  5 Test12= 1.60D-13 1.33D-09 XBig12= 2.85D-03 6.37D-03.
     53 vectors produced by pass  6 Test12= 1.60D-13 1.33D-09 XBig12= 1.00D-04 1.07D-03.
     23 vectors produced by pass  7 Test12= 1.60D-13 1.33D-09 XBig12= 1.54D-06 1.42D-04.
     12 vectors produced by pass  8 Test12= 1.60D-13 1.33D-09 XBig12= 2.57D-08 2.57D-05.
      3 vectors produced by pass  9 Test12= 1.60D-13 1.33D-09 XBig12= 3.59D-10 4.92D-06.
      3 vectors produced by pass 10 Test12= 1.60D-13 1.33D-09 XBig12= 4.88D-12 6.85D-07.
      3 vectors produced by pass 11 Test12= 1.60D-13 1.33D-09 XBig12= 7.06D-14 8.08D-08.
      3 vectors produced by pass 12 Test12= 1.60D-13 1.33D-09 XBig12= 2.41D-14 1.07D-08.
      3 vectors produced by pass 13 Test12= 1.60D-13 1.33D-09 XBig12= 5.22D-14 1.51D-08.
      3 vectors produced by pass 14 Test12= 1.60D-13 1.33D-09 XBig12= 5.50D-14 2.17D-08.
      3 vectors produced by pass 15 Test12= 1.60D-13 1.33D-09 XBig12= 6.17D-15 6.17D-09.
      3 vectors produced by pass 16 Test12= 1.60D-13 1.33D-09 XBig12= 2.59D-14 1.35D-08.
      3 vectors produced by pass 17 Test12= 1.60D-13 1.33D-09 XBig12= 1.67D-14 9.19D-09.
      3 vectors produced by pass 18 Test12= 1.60D-13 1.33D-09 XBig12= 7.51D-15 4.81D-09.
      3 vectors produced by pass 19 Test12= 1.60D-13 1.33D-09 XBig12= 5.69D-15 5.11D-09.
      3 vectors produced by pass 20 Test12= 1.60D-13 1.33D-09 XBig12= 8.77D-15 5.54D-09.
      3 vectors produced by pass 21 Test12= 1.60D-13 1.33D-09 XBig12= 1.14D-14 9.39D-09.
      3 vectors produced by pass 22 Test12= 1.60D-13 1.33D-09 XBig12= 1.41D-14 6.94D-09.
      3 vectors produced by pass 23 Test12= 1.60D-13 1.33D-09 XBig12= 1.17D-14 5.61D-09.
      3 vectors produced by pass 24 Test12= 1.60D-13 1.33D-09 XBig12= 1.55D-14 7.19D-09.
      3 vectors produced by pass 25 Test12= 1.60D-13 1.33D-09 XBig12= 2.55D-14 9.96D-09.
      3 vectors produced by pass 26 Test12= 1.60D-13 1.33D-09 XBig12= 5.76D-15 5.22D-09.
      3 vectors produced by pass 27 Test12= 1.60D-13 1.33D-09 XBig12= 7.02D-15 4.27D-09.
      3 vectors produced by pass 28 Test12= 1.60D-13 1.33D-09 XBig12= 1.46D-14 7.89D-09.
      2 vectors produced by pass 29 Test12= 1.60D-13 1.33D-09 XBig12= 6.90D-15 5.55D-09.
      1 vectors produced by pass 30 Test12= 1.60D-13 1.33D-09 XBig12= 8.15D-16 1.78D-09.
      1 vectors produced by pass 31 Test12= 1.60D-13 1.33D-09 XBig12= 7.57D-16 1.89D-09.
      1 vectors produced by pass 32 Test12= 1.60D-13 1.33D-09 XBig12= 6.59D-16 2.48D-09.
      1 vectors produced by pass 33 Test12= 1.60D-13 1.33D-09 XBig12= 5.63D-16 2.50D-09.
      1 vectors produced by pass 34 Test12= 1.60D-13 1.33D-09 XBig12= 6.63D-16 2.24D-09.
      1 vectors produced by pass 35 Test12= 1.60D-13 1.33D-09 XBig12= 5.85D-16 1.96D-09.
      1 vectors produced by pass 36 Test12= 1.60D-13 1.33D-09 XBig12= 5.91D-16 1.48D-09.
      1 vectors produced by pass 37 Test12= 1.60D-13 1.33D-09 XBig12= 5.65D-16 1.46D-09.
      1 vectors produced by pass 38 Test12= 1.60D-13 1.33D-09 XBig12= 7.56D-16 1.78D-09.
      1 vectors produced by pass 39 Test12= 1.60D-13 1.33D-09 XBig12= 7.48D-16 1.96D-09.
      1 vectors produced by pass 40 Test12= 1.60D-13 1.33D-09 XBig12= 5.56D-16 1.95D-09.
      1 vectors produced by pass 41 Test12= 1.60D-13 1.33D-09 XBig12= 7.28D-16 1.80D-09.
      1 vectors produced by pass 42 Test12= 1.60D-13 1.33D-09 XBig12= 5.55D-16 1.57D-09.
      1 vectors produced by pass 43 Test12= 1.60D-13 1.33D-09 XBig12= 6.52D-16 2.10D-09.
      1 vectors produced by pass 44 Test12= 1.60D-13 1.33D-09 XBig12= 7.05D-16 3.04D-09.
      1 vectors produced by pass 45 Test12= 1.60D-13 1.33D-09 XBig12= 5.16D-16 1.56D-09.
      1 vectors produced by pass 46 Test12= 1.60D-13 1.33D-09 XBig12= 5.67D-16 1.73D-09.
      1 vectors produced by pass 47 Test12= 1.60D-13 1.33D-09 XBig12= 5.38D-16 1.65D-09.
      1 vectors produced by pass 48 Test12= 1.60D-13 1.33D-09 XBig12= 5.51D-16 2.20D-09.
 InvSVY:  IOpt=1 It=  1 EMax= 7.27D-15
 Solved reduced A of dimension   619 with    75 vectors.
 Isotropic polarizability for W=    0.000000      390.65 Bohr**3.
 End of Minotr F.D. properties file   721 does not exist.
 End of Minotr F.D. properties file   722 does not exist.
 End of Minotr F.D. properties file   788 does not exist.

 **********************************************************************

            Population analysis using the SCF density.

 **********************************************************************

 Alpha  occ. eigenvalues -- -482.57833 -61.66329 -56.23228 -56.22948 -56.22937
 Alpha  occ. eigenvalues --  -19.06425 -19.05933 -19.05887 -19.05329 -19.05258
 Alpha  occ. eigenvalues --  -19.04639 -19.04627 -19.04536 -19.04523 -18.98438
 Alpha  occ. eigenvalues --  -14.57770 -14.34330 -10.36567 -10.36356 -10.36282
 Alpha  occ. eigenvalues --  -10.35924 -10.30466 -10.30119 -10.30043 -10.29852
 Alpha  occ. eigenvalues --  -10.22083 -10.21985 -10.21900 -10.21290 -10.21187
 Alpha  occ. eigenvalues --  -10.21183 -10.20117 -10.18804 -10.18802 -10.15580
 Alpha  occ. eigenvalues --  -10.14111 -10.13347 -10.13036 -10.12884 -10.12157
 Alpha  occ. eigenvalues --   -8.43390  -6.44833  -6.43845  -6.43832  -2.56820
 Alpha  occ. eigenvalues --   -2.56547  -2.56537  -2.55750  -2.55750  -1.12766
 Alpha  occ. eigenvalues --   -0.98408  -0.97990  -0.97832  -0.97290  -0.94934
 Alpha  occ. eigenvalues --   -0.93986  -0.91060  -0.90855  -0.90669  -0.89784
 Alpha  occ. eigenvalues --   -0.89529  -0.89475  -0.88951  -0.85598  -0.85187
 Alpha  occ. eigenvalues --   -0.79813  -0.78255  -0.77603  -0.76615  -0.75475
 Alpha  occ. eigenvalues --   -0.72125  -0.69921  -0.69620  -0.64255  -0.64134
 Alpha  occ. eigenvalues --   -0.64109  -0.62439  -0.62308  -0.62065  -0.59904
 Alpha  occ. eigenvalues --   -0.59786  -0.58443  -0.56107  -0.55922  -0.55714
 Alpha  occ. eigenvalues --   -0.54769  -0.53731  -0.53388  -0.52821  -0.52808
 Alpha  occ. eigenvalues --   -0.52396  -0.52303  -0.52061  -0.51662  -0.51506
 Alpha  occ. eigenvalues --   -0.51168  -0.51041  -0.50979  -0.50581  -0.50341
 Alpha  occ. eigenvalues --   -0.50216  -0.49975  -0.49907  -0.49629  -0.49130
 Alpha  occ. eigenvalues --   -0.48909  -0.48874  -0.48811  -0.48118  -0.47962
 Alpha  occ. eigenvalues --   -0.47277  -0.47262  -0.47054  -0.46791  -0.46584
 Alpha  occ. eigenvalues --   -0.45823  -0.42201  -0.41913  -0.41790  -0.40947
 Alpha  occ. eigenvalues --   -0.40140  -0.39601  -0.39463  -0.39106  -0.38798
 Alpha  occ. eigenvalues --   -0.38648  -0.38016  -0.37544  -0.37523  -0.36708
 Alpha  occ. eigenvalues --   -0.35241  -0.35185  -0.35033  -0.34780  -0.33687
 Alpha  occ. eigenvalues --   -0.33548  -0.33320  -0.31719  -0.30774  -0.30357
 Alpha  occ. eigenvalues --   -0.30028  -0.29033  -0.28503  -0.27040  -0.26084
 Alpha  occ. eigenvalues --   -0.25465  -0.24483  -0.24018  -0.22104  -0.21724
 Alpha  occ. eigenvalues --   -0.21328  -0.20837  -0.20598  -0.20389  -0.20226
 Alpha  occ. eigenvalues --   -0.20018  -0.19852  -0.19573  -0.19490  -0.19342
 Alpha  occ. eigenvalues --   -0.18979  -0.17668  -0.16990  -0.13741  -0.13119
 Alpha virt. eigenvalues --   -0.10180  -0.08492  -0.08392  -0.08220  -0.06236
 Alpha virt. eigenvalues --   -0.06124  -0.05083  -0.04799  -0.04430  -0.04246
 Alpha virt. eigenvalues --   -0.02928  -0.02571  -0.02356  -0.01715  -0.01153
 Alpha virt. eigenvalues --   -0.00980  -0.00718  -0.00646  -0.00399   0.00462
 Alpha virt. eigenvalues --    0.00747   0.01484   0.02159   0.02347   0.02375
 Alpha virt. eigenvalues --    0.02892   0.03326   0.03625   0.04339   0.04609
 Alpha virt. eigenvalues --    0.04992   0.05205   0.05566   0.05709   0.05775
 Alpha virt. eigenvalues --    0.06269   0.06568   0.07170   0.07230   0.07391
 Alpha virt. eigenvalues --    0.07559   0.07608   0.07750   0.07844   0.08167
 Alpha virt. eigenvalues --    0.08179   0.08429   0.08636   0.08885   0.09081
 Alpha virt. eigenvalues --    0.09238   0.09310   0.09525   0.09800   0.09884
 Alpha virt. eigenvalues --    0.09990   0.10445   0.10463   0.10719   0.10905
 Alpha virt. eigenvalues --    0.10912   0.10999   0.11478   0.11516   0.11547
 Alpha virt. eigenvalues --    0.11806   0.11963   0.12409   0.12542   0.12582
 Alpha virt. eigenvalues --    0.12934   0.13067   0.13148   0.13302   0.13367
 Alpha virt. eigenvalues --    0.13423   0.13821   0.13996   0.14281   0.14542
 Alpha virt. eigenvalues --    0.14894   0.15000   0.15113   0.15422   0.15632
 Alpha virt. eigenvalues --    0.15782   0.15964   0.16291   0.16387   0.16760
 Alpha virt. eigenvalues --    0.16787   0.16916   0.17152   0.17231   0.17915
 Alpha virt. eigenvalues --    0.18043   0.18173   0.18226   0.18355   0.18436
 Alpha virt. eigenvalues --    0.19067   0.19391   0.19643   0.19792   0.19957
 Alpha virt. eigenvalues --    0.20070   0.20297   0.20323   0.20400   0.20452
 Alpha virt. eigenvalues --    0.20599   0.20727   0.20872   0.21304   0.21626
 Alpha virt. eigenvalues --    0.21785   0.22052   0.22354   0.22494   0.22915
 Alpha virt. eigenvalues --    0.23226   0.23421   0.24127   0.24184   0.24340
 Alpha virt. eigenvalues --    0.24459   0.24916   0.25103   0.25153   0.25230
 Alpha virt. eigenvalues --    0.25350   0.25827   0.26375   0.26700   0.26824
 Alpha virt. eigenvalues --    0.26942   0.27329   0.27688   0.27844   0.27955
 Alpha virt. eigenvalues --    0.28174   0.28266   0.28616   0.29003   0.29087
 Alpha virt. eigenvalues --    0.29567   0.29799   0.29963   0.30283   0.30652
 Alpha virt. eigenvalues --    0.30810   0.31272   0.31603   0.31777   0.31907
 Alpha virt. eigenvalues --    0.32033   0.32313   0.32440   0.32912   0.33337
 Alpha virt. eigenvalues --    0.33434   0.33798   0.34250   0.34273   0.34807
 Alpha virt. eigenvalues --    0.34983   0.35492   0.35726   0.36042   0.36290
 Alpha virt. eigenvalues --    0.36922   0.37302   0.37553   0.38170   0.38537
 Alpha virt. eigenvalues --    0.38660   0.39257   0.39661   0.39752   0.39932
 Alpha virt. eigenvalues --    0.40167   0.40611   0.40926   0.41175   0.41376
 Alpha virt. eigenvalues --    0.41959   0.42270   0.42411   0.43045   0.43490
 Alpha virt. eigenvalues --    0.43649   0.44209   0.44478   0.44637   0.44940
 Alpha virt. eigenvalues --    0.45578   0.46045   0.46115   0.46597   0.47261
 Alpha virt. eigenvalues --    0.47458   0.47682   0.48038   0.48239   0.48362
 Alpha virt. eigenvalues --    0.48745   0.48836   0.49150   0.49220   0.49427
 Alpha virt. eigenvalues --    0.50191   0.50456   0.50651   0.51020   0.51327
 Alpha virt. eigenvalues --    0.51700   0.52143   0.52512   0.52766   0.53285
 Alpha virt. eigenvalues --    0.53721   0.54052   0.54310   0.54820   0.55614
 Alpha virt. eigenvalues --    0.55906   0.55935   0.56123   0.56614   0.56663
 Alpha virt. eigenvalues --    0.57455   0.57539   0.57969   0.58338   0.58466
 Alpha virt. eigenvalues --    0.58673   0.59392   0.59411   0.59834   0.60074
 Alpha virt. eigenvalues --    0.60706   0.60914   0.61017   0.61140   0.61367
 Alpha virt. eigenvalues --    0.62207   0.62936   0.63262   0.63471   0.64415
 Alpha virt. eigenvalues --    0.64789   0.65109   0.65885   0.67397   0.68435
 Alpha virt. eigenvalues --    0.69070   0.69519   0.69874   0.70544   0.70925
 Alpha virt. eigenvalues --    0.72299   0.72721   0.73662   0.73676   0.74207
 Alpha virt. eigenvalues --    0.75425   0.75658   0.76479   0.76508   0.76790
 Alpha virt. eigenvalues --    0.76851   0.77633   0.77886   0.78374   0.78556
 Alpha virt. eigenvalues --    0.79204   0.79290   0.79991   0.80207   0.80943
 Alpha virt. eigenvalues --    0.81684   0.81888   0.82159   0.83112   0.83385
 Alpha virt. eigenvalues --    0.83887   0.84729   0.84799   0.85154   0.85979
 Alpha virt. eigenvalues --    0.86625   0.86984   0.87229   0.87756   0.87896
 Alpha virt. eigenvalues --    0.88187   0.89043   0.89143   0.89688   0.90003
 Alpha virt. eigenvalues --    0.90961   0.91473   0.92228   0.92250   0.92898
 Alpha virt. eigenvalues --    0.93703   0.93706   0.94164   0.94678   0.94724
 Alpha virt. eigenvalues --    0.95208   0.96453   0.96463   0.97674   0.97968
 Alpha virt. eigenvalues --    0.98262   0.98823   0.99420   0.99800   0.99890
 Alpha virt. eigenvalues --    1.00298   1.00564   1.00683   1.01539   1.02399
 Alpha virt. eigenvalues --    1.02496   1.02585   1.03261   1.03434   1.03604
 Alpha virt. eigenvalues --    1.04049   1.04299   1.04857   1.05189   1.06463
 Alpha virt. eigenvalues --    1.06769   1.06922   1.07145   1.07163   1.08039
 Alpha virt. eigenvalues --    1.08816   1.09098   1.10559   1.11412   1.11566
 Alpha virt. eigenvalues --    1.11971   1.12469   1.12870   1.13397   1.13432
 Alpha virt. eigenvalues --    1.14593   1.16437   1.17292   1.18235   1.18640
 Alpha virt. eigenvalues --    1.18800   1.20394   1.20538   1.21720   1.22365
 Alpha virt. eigenvalues --    1.22556   1.23073   1.23688   1.24220   1.24940
 Alpha virt. eigenvalues --    1.25204   1.25769   1.25924   1.26324   1.27711
 Alpha virt. eigenvalues --    1.27915   1.28346   1.28777   1.29523   1.30406
 Alpha virt. eigenvalues --    1.30694   1.31268   1.31588   1.31932   1.32800
 Alpha virt. eigenvalues --    1.33035   1.34290   1.34337   1.35051   1.35247
 Alpha virt. eigenvalues --    1.35708   1.35842   1.36205   1.37687   1.39988
 Alpha virt. eigenvalues --    1.40288   1.40535   1.41100   1.41157   1.41433
 Alpha virt. eigenvalues --    1.41979   1.42414   1.42904   1.43473   1.43648
 Alpha virt. eigenvalues --    1.44047   1.44261   1.45106   1.46247   1.46479
 Alpha virt. eigenvalues --    1.46783   1.47126   1.48090   1.49005   1.49416
 Alpha virt. eigenvalues --    1.49626   1.50849   1.51036   1.51340   1.51599
 Alpha virt. eigenvalues --    1.51841   1.52116   1.52513   1.52977   1.53637
 Alpha virt. eigenvalues --    1.53985   1.54762   1.55339   1.56290   1.57045
 Alpha virt. eigenvalues --    1.57356   1.57488   1.58333   1.59520   1.59831
 Alpha virt. eigenvalues --    1.60284   1.61225   1.62207   1.62778   1.63862
 Alpha virt. eigenvalues --    1.64463   1.65593   1.65969   1.66415   1.67529
 Alpha virt. eigenvalues --    1.68073   1.68171   1.68729   1.69294   1.69632
 Alpha virt. eigenvalues --    1.70932   1.71523   1.71581   1.73075   1.73313
 Alpha virt. eigenvalues --    1.73658   1.74920   1.75556   1.76770   1.77125
 Alpha virt. eigenvalues --    1.79455   1.80205   1.80290   1.81182   1.81330
 Alpha virt. eigenvalues --    1.82199   1.83852   1.84484   1.84673   1.85466
 Alpha virt. eigenvalues --    1.85643   1.86818   1.87106   1.87479   1.88183
 Alpha virt. eigenvalues --    1.88289   1.88957   1.90265   1.90829   1.91307
 Alpha virt. eigenvalues --    1.91346   1.91493   1.91674   1.92272   1.92457
 Alpha virt. eigenvalues --    1.92467   1.92655   1.93284   1.93324   1.93582
 Alpha virt. eigenvalues --    1.94353   1.94449   1.94680   1.95872   1.95892
 Alpha virt. eigenvalues --    1.96765   1.96884   1.97054   1.97275   1.97339
 Alpha virt. eigenvalues --    1.98645   1.98789   1.98844   1.99269   1.99440
 Alpha virt. eigenvalues --    1.99465   2.00246   2.00669   2.00726   2.01000
 Alpha virt. eigenvalues --    2.01030   2.01164   2.01556   2.01800   2.02782
 Alpha virt. eigenvalues --    2.02919   2.02989   2.03129   2.03487   2.03833
 Alpha virt. eigenvalues --    2.04051   2.04311   2.04621   2.05014   2.05307
 Alpha virt. eigenvalues --    2.05437   2.06199   2.07069   2.07805   2.08086
 Alpha virt. eigenvalues --    2.08948   2.09388   2.09699   2.10178   2.10410
 Alpha virt. eigenvalues --    2.11581   2.11771   2.12120   2.13227   2.13481
 Alpha virt. eigenvalues --    2.13688   2.14363   2.14455   2.15065   2.15517
 Alpha virt. eigenvalues --    2.16011   2.16154   2.16798   2.17357   2.19250
 Alpha virt. eigenvalues --    2.19299   2.20355   2.20658   2.22493   2.23036
 Alpha virt. eigenvalues --    2.23156   2.24319   2.24679   2.25019   2.25794
 Alpha virt. eigenvalues --    2.27193   2.27995   2.28448   2.28842   2.30252
 Alpha virt. eigenvalues --    2.31091   2.31369   2.31457   2.32591   2.32609
 Alpha virt. eigenvalues --    2.32813   2.32937   2.33135   2.33640   2.34074
 Alpha virt. eigenvalues --    2.34235   2.34846   2.35250   2.36070   2.36341
 Alpha virt. eigenvalues --    2.37044   2.37334   2.38600   2.38995   2.39637
 Alpha virt. eigenvalues --    2.39753   2.40206   2.41094   2.41362   2.41644
 Alpha virt. eigenvalues --    2.41943   2.42872   2.43229   2.43819   2.44082
 Alpha virt. eigenvalues --    2.45639   2.49275   2.49915   2.50511   2.51088
 Alpha virt. eigenvalues --    2.51104   2.51668   2.54042   2.54661   2.55666
 Alpha virt. eigenvalues --    2.56110   2.56606   2.57090   2.58383   2.58490
 Alpha virt. eigenvalues --    2.59150   2.59529   2.59777   2.60568   2.60741
 Alpha virt. eigenvalues --    2.61424   2.61773   2.62400   2.62525   2.64686
 Alpha virt. eigenvalues --    2.64718   2.65682   2.65895   2.66014   2.66524
 Alpha virt. eigenvalues --    2.66617   2.67720   2.68044   2.68570   2.68999
 Alpha virt. eigenvalues --    2.69636   2.70451   2.70797   2.71513   2.72363
 Alpha virt. eigenvalues --    2.73133   2.73402   2.73576   2.74407   2.74985
 Alpha virt. eigenvalues --    2.75721   2.76669   2.77195   2.77256   2.77507
 Alpha virt. eigenvalues --    2.78230   2.78512   2.79501   2.79521   2.79657
 Alpha virt. eigenvalues --    2.80350   2.81334   2.81587   2.82181   2.82495
 Alpha virt. eigenvalues --    2.83308   2.85473   2.85785   2.87596   2.87826
 Alpha virt. eigenvalues --    2.89086   2.89537   2.89881   2.90415   2.90594
 Alpha virt. eigenvalues --    2.92524   2.93639   2.94774   2.95837   2.98078
 Alpha virt. eigenvalues --    2.99316   3.00616   3.05272   3.05816   3.09804
 Alpha virt. eigenvalues --    3.10335   3.11473   3.12439   3.14358   3.14858
 Alpha virt. eigenvalues --    3.15023   3.15210   3.15672   3.15719   3.16180
 Alpha virt. eigenvalues --    3.16322   3.16697   3.17654   3.21100   3.21622
 Alpha virt. eigenvalues --    3.22028   3.23240   3.23361   3.23816   3.24194
 Alpha virt. eigenvalues --    3.24589   3.25449   3.28194   3.29332   3.30482
 Alpha virt. eigenvalues --    3.30484   3.31518   3.31909   3.33212   3.34389
 Alpha virt. eigenvalues --    3.34537   3.35921   3.37989   3.39078   3.39413
 Alpha virt. eigenvalues --    3.40236   3.41800   3.41861   3.42685   3.43561
 Alpha virt. eigenvalues --    3.43822   3.45768   3.46733   3.50776   3.52434
 Alpha virt. eigenvalues --    3.55702   3.55990   3.56306   3.57197   3.57548
 Alpha virt. eigenvalues --    3.60056   3.61006   3.64769   3.75200   3.94611
 Alpha virt. eigenvalues --    8.81219  11.26592  11.52633
          Condensed to atoms (all electrons):
 Mulliken charges:
               1
     1  Zn   0.760364
     2  O   -0.509386
     3  O   -0.470245
     4  O   -0.449478
     5  O   -0.502102
     6  C    0.417910
     7  C    0.468661
     8  Zn   0.485726
     9  O   -0.449060
    10  O   -0.521144
    11  O   -0.416138
    12  O   -0.468540
    13  C    0.424822
    14  C    0.424576
    15  H    0.057693
    16  H    0.064488
    17  H    0.065316
    18  H    0.068214
    19  C   -0.300345
    20  C    0.098544
    21  C   -0.568686
    22  C    0.061817
    23  C   -0.303648
    24  N    0.208418
    25  H    0.135103
    26  H    0.200223
    27  H    0.136498
    28  H    0.136411
    29  H    0.200414
    30  C   -0.319596
    31  C    0.135752
    32  C   -0.226584
    33  O   -0.305565
    34  C   -0.265579
    35  C    0.421092
    36  C   -0.373851
    37  O   -0.475377
    38  H    0.116952
    39  H    0.129372
    40  H    0.123729
    41  H    0.105391
    42  H    0.148322
    43  H    0.106902
    44  H    0.132161
    45  H    0.098004
    46  H    0.174777
    47  H    0.202990
    48  N   -0.711756
    49  C    0.078159
    50  C   -0.609568
    51  H    0.192191
    52  H    0.188884
    53  H    0.186898
    54  H    0.173329
    55  H    0.179834
    56  C    0.047521
    57  C   -0.559744
    58  H    0.194872
    59  H    0.192218
    60  H    0.195909
    61  H    0.177598
    62  H    0.174573
    63  C    0.119730
    64  C   -0.535313
    65  H    0.187704
    66  H    0.194637
    67  H    0.188901
    68  H    0.171418
    69  H    0.175681
    70  C    0.033288
    71  C   -0.542471
    72  H    0.186710
    73  H    0.183271
    74  H    0.190970
    75  H    0.176521
    76  H    0.168033
    77  Br  -0.385319
 Sum of Mulliken charges =  -0.00000
 Mulliken charges with hydrogens summed into heavy atoms:
               1
     1  Zn   0.760364
     2  O   -0.509386
     3  O   -0.470245
     4  O   -0.449478
     5  O   -0.502102
     6  C    0.475604
     7  C    0.533149
     8  Zn   0.485726
     9  O   -0.449060
    10  O   -0.521144
    11  O   -0.416138
    12  O   -0.468540
    13  C    0.490138
    14  C    0.492789
    19  C   -0.100122
    20  C    0.235042
    21  C   -0.433583
    22  C    0.198227
    23  C   -0.103234
    24  N    0.208418
    30  C   -0.073272
    31  C    0.259482
    32  C    0.027129
    33  O   -0.305565
    34  C   -0.026516
    35  C    0.519096
    36  C    0.003916
    37  O   -0.475377
    48  N   -0.711756
    49  C    0.459234
    50  C   -0.069507
    56  C    0.434611
    57  C   -0.011665
    63  C    0.502072
    64  C    0.000688
    70  C    0.403270
    71  C   -0.006947
    77  Br  -0.385319
 Electronic spatial extent (au):  <R**2>=          92437.5145
 Charge=             -0.0000 electrons
 Dipole moment (field-independent basis, Debye):
    X=             38.4437    Y=             45.6724    Z=            -54.3939  Tot=             80.7625
 Quadrupole moment (field-independent basis, Debye-Ang):
   XX=            195.0430   YY=             17.4751   ZZ=            143.5511
   XY=            351.1027   XZ=           -423.6649   YZ=           -328.8086
 Traceless Quadrupole moment (field-independent basis, Debye-Ang):
   XX=             76.3533   YY=           -101.2146   ZZ=             24.8614
   XY=            351.1027   XZ=           -423.6649   YZ=           -328.8086
 Octapole moment (field-independent basis, Debye-Ang**2):
  XXX=           3113.9368  YYY=           2169.3942  ZZZ=          -4146.0264  XYY=           2677.2522
  XXY=           3038.5566  XXZ=          -3732.4792  XZZ=           3906.1913  YZZ=           3356.3560
  YYZ=          -2832.4798  XYZ=          -3275.7703
 Hexadecapole moment (field-independent basis, Debye-Ang**3):
 XXXX=          -5024.9694 YYYY=          -7920.3067 ZZZZ=              1.5856 XXXY=          17277.9146
 XXXZ=         -21169.2639 YYYX=           6288.4473 YYYZ=          -8442.2999 ZZZX=         -20672.0497
 ZZZY=         -18672.1977 XXYY=          13612.5315 XXZZ=          22498.1668 YYZZ=          15338.8443
 XXYZ=         -26260.6302 YYXZ=         -19960.0172 ZZXY=          25813.5907
 N-N= 4.782081674271D+03 E-N=-2.031023686309D+04  KE= 4.551005249027D+03
  Exact polarizability: 459.022  33.072 340.108 -32.140  12.260 372.813
 Approx polarizability: 620.724  25.546 489.623 -38.121  16.963 501.899
   1 Symmetry operations used in ECPInt.
 ECPInt:  NShTT=   50403 NPrTT=  223596 LenC2=   26000 LenP2D=   70914.
 LDataN:  DoStor=T MaxTD1= 7 Len=  274
 Calling FoFJK, ICntrl=    100127 FMM=F ISym2X=0 I1Cent= 0 IOpClX= 0 NMat=1 NMatS=1 NMatT=0.
 -------------------------------------------------------------------
 Center     Atomic                   Forces (Hartrees/Bohr)
 Number     Number              X              Y              Z
 -------------------------------------------------------------------
      1       30          -0.000000000   -0.000000000   -0.000000000
      2        8          -0.000000000   -0.000000000   -0.000000000
      3        8          -0.000000826   -0.000003438    0.000001767
      4        8          -0.000000000   -0.000000000   -0.000000000
      5        8           0.000000056   -0.000006714   -0.000004352
      6        6          -0.000000000   -0.000000000   -0.000000000
      7        6          -0.000000000   -0.000000000   -0.000000000
      8       30          -0.000033669   -0.000059880   -0.000021841
      9        8           0.000000865   -0.000000560    0.000000737
     10        8          -0.000000000   -0.000000000   -0.000000000
     11        8          -0.000000382   -0.000004497    0.000001086
     12        8          -0.000000000   -0.000000000   -0.000000000
     13        6          -0.000000000   -0.000000000   -0.000000000
     14        6          -0.000000000   -0.000000000   -0.000000000
     15        1          -0.000000000   -0.000000000   -0.000000000
     16        1          -0.000000000   -0.000000000   -0.000000000
     17        1          -0.000000000   -0.000000000   -0.000000000
     18        1          -0.000000000   -0.000000000   -0.000000000
     19        6          -0.000000000   -0.000000000   -0.000000000
     20        6          -0.000000000   -0.000000000   -0.000000000
     21        6          -0.000000000   -0.000000000   -0.000000000
     22        6          -0.000000000   -0.000000000   -0.000000000
     23        6          -0.000000000   -0.000000000   -0.000000000
     24        7          -0.000000000   -0.000000000   -0.000000000
     25        1          -0.000000000   -0.000000000   -0.000000000
     26        1          -0.000000000   -0.000000000   -0.000000000
     27        1          -0.000000000   -0.000000000   -0.000000000
     28        1          -0.000000000   -0.000000000   -0.000000000
     29        1          -0.000000000   -0.000000000   -0.000000000
     30        6           0.000272478   -0.000199784   -0.000508590
     31        6          -0.000103634    0.000171843    0.000408218
     32        6          -0.000022305    0.000076689   -0.000066362
     33        8           0.000031510    0.000206053   -0.000225637
     34        6          -0.000038190    0.000049561   -0.000040177
     35        6          -0.000013694    0.000015909   -0.000013284
     36        6           0.000000035   -0.000034044   -0.000005387
     37        8          -0.000030523   -0.000000009    0.000048605
     38        1          -0.000009955   -0.000008837   -0.000014435
     39        1           0.000550560   -0.000034647    0.000035110
     40        1          -0.000496976    0.000043285   -0.000048789
     41        1          -0.000035803   -0.000101859    0.000042841
     42        1           0.000133089    0.000011459    0.000023071
     43        1          -0.000068174   -0.000072169    0.000038910
     44        1           0.000063862   -0.000001988    0.000041940
     45        1           0.000004965    0.000004259    0.000000823
     46        1           0.000000778   -0.000005520    0.000004162
     47        1          -0.000002541   -0.000004363   -0.000002229
     48        7          -0.000000000   -0.000000000   -0.000000000
     49        6          -0.000000000   -0.000000000   -0.000000000
     50        6          -0.000000000   -0.000000000   -0.000000000
     51        1          -0.000000000   -0.000000000   -0.000000000
     52        1          -0.000000000   -0.000000000   -0.000000000
     53        1          -0.000000000   -0.000000000   -0.000000000
     54        1          -0.000000000   -0.000000000   -0.000000000
     55        1          -0.000000000   -0.000000000   -0.000000000
     56        6          -0.000000000   -0.000000000   -0.000000000
     57        6          -0.000000000   -0.000000000   -0.000000000
     58        1          -0.000000000   -0.000000000   -0.000000000
     59        1          -0.000000000   -0.000000000   -0.000000000
     60        1          -0.000000000   -0.000000000   -0.000000000
     61        1          -0.000000000   -0.000000000   -0.000000000
     62        1          -0.000000000   -0.000000000   -0.000000000
     63        6          -0.000000000   -0.000000000   -0.000000000
     64        6          -0.000000000   -0.000000000   -0.000000000
     65        1          -0.000000000   -0.000000000   -0.000000000
     66        1          -0.000000000   -0.000000000   -0.000000000
     67        1          -0.000000000   -0.000000000   -0.000000000
     68        1          -0.000000000   -0.000000000   -0.000000000
     69        1          -0.000000000   -0.000000000   -0.000000000
     70        6          -0.000000000   -0.000000000   -0.000000000
     71        6          -0.000000000   -0.000000000   -0.000000000
     72        1          -0.000000000   -0.000000000   -0.000000000
     73        1          -0.000000000   -0.000000000   -0.000000000
     74        1          -0.000000000   -0.000000000   -0.000000000
     75        1          -0.000000000   -0.000000000   -0.000000000
     76        1          -0.000000000   -0.000000000   -0.000000000
     77       35          -0.000187778   -0.000066034    0.000288012
 -------------------------------------------------------------------
 Cartesian Forces:  Max     0.000550560 RMS     0.000078673

 GradGradGradGradGradGradGradGradGradGradGradGradGradGradGradGradGradGrad
 Berny optimization.
 Search for a local minimum.
 Step number   1 out of a maximum of  241
 All quantities printed in internal units (Hartrees-Bohrs-Radians)
 Second derivative matrix not updated -- analytic derivatives used.
 ITU=  0
     Eigenvalues ---    0.00002   0.00005   0.00011   0.00029   0.00045
     Eigenvalues ---    0.00067   0.00146   0.00161   0.00201   0.00262
     Eigenvalues ---    0.00367   0.00911   0.01164   0.01412   0.01820
     Eigenvalues ---    0.02043   0.02194   0.02359   0.02752   0.03448
     Eigenvalues ---    0.03627   0.03684   0.04339   0.04590   0.04666
     Eigenvalues ---    0.05013   0.05255   0.05888   0.06029   0.06969
     Eigenvalues ---    0.07299   0.08050   0.08576   0.08853   0.09962
     Eigenvalues ---    0.09995   0.10118   0.11659   0.11782   0.12524
     Eigenvalues ---    0.13812   0.14422   0.14753   0.15616   0.17042
     Eigenvalues ---    0.17769   0.18337   0.20577   0.20978   0.21650
     Eigenvalues ---    0.25873   0.30018   0.34612   0.41188   0.49415
     Eigenvalues ---    0.57971   0.61975   0.65992   0.66324   0.67493
     Eigenvalues ---    0.68559   0.70107   0.72127   0.72646   0.75949
     Eigenvalues ---    0.78816   0.80559   0.85582   0.87214   0.93277
     Eigenvalues ---    0.97551   1.45118
 RFO step:  Lambda=-1.19671986D-04 EMin= 2.37122617D-05
 Linear search not attempted -- first point.
 Maximum step size (   0.300) exceeded in Quadratic search.
    -- Step size scaled by   0.475
 Variable       Old X    -DE/DX   Delta X   Delta X   Delta X     New X
                                 (Linear)    (Quad)   (Total)
    X1       -8.87130  -0.00000   0.00000   0.00000   0.00000  -8.87130
    Y1       -4.77894  -0.00000   0.00000   0.00000   0.00000  -4.77894
    Z1        4.39610  -0.00000   0.00000   0.00000   0.00000   4.39610
    X2       -8.69278  -0.00000   0.00000   0.00000   0.00000  -8.69278
    Y2       -1.76072  -0.00000   0.00000   0.00000   0.00000  -1.76072
    Z2        6.86228  -0.00000   0.00000   0.00000   0.00000   6.86228
    X3       -4.42719  -0.00000   0.00000   0.00019   0.00019  -4.42700
    Y3       -1.61719  -0.00000   0.00000  -0.00036  -0.00036  -1.61755
    Z3        6.68961   0.00000   0.00000   0.00061   0.00061   6.69021
    X4       -7.12691  -0.00000   0.00000   0.00000   0.00000  -7.12691
    Y4       -2.41835  -0.00000   0.00000   0.00000   0.00000  -2.41835
    Z4        1.56513  -0.00000   0.00000   0.00000   0.00000   1.56513
    X5       -2.87611   0.00000   0.00000  -0.00010  -0.00010  -2.87621
    Y5       -2.08791  -0.00001   0.00000  -0.00061  -0.00061  -2.08851
    Z5        1.26841  -0.00000   0.00000  -0.00030  -0.00030   1.26811
    X6       -6.54077  -0.00000   0.00000   0.00000   0.00000  -6.54077
    Y6       -0.88593  -0.00000   0.00000   0.00000   0.00000  -0.88593
    Z6        7.45070  -0.00000   0.00000   0.00000   0.00000   7.45070
    X7       -5.10895  -0.00000   0.00000   0.00000   0.00000  -5.10895
    Y7       -1.59236  -0.00000   0.00000   0.00000   0.00000  -1.59236
    Z7        0.60706  -0.00000   0.00000   0.00000   0.00000   0.60706
    X8       -2.16048  -0.00003   0.00000  -0.00109  -0.00109  -2.16157
    Y8       -4.59684  -0.00006   0.00000   0.00130   0.00130  -4.59554
    Z8        4.19871  -0.00002   0.00000   0.00156   0.00156   4.20027
    X9       -4.31319   0.00000   0.00000  -0.00003  -0.00003  -4.31322
    Y9       -7.54608  -0.00000   0.00000   0.00004   0.00004  -7.54604
    Z9        1.83031   0.00000   0.00000   0.00011   0.00011   1.83042
   X10       -8.57814  -0.00000   0.00000   0.00000   0.00000  -8.57814
   Y10       -7.77728  -0.00000   0.00000   0.00000   0.00000  -7.77728
   Z10        1.91665  -0.00000   0.00000   0.00000   0.00000   1.91665
   X11       -2.51702  -0.00000   0.00000   0.00006   0.00006  -2.51696
   Y11       -6.98208  -0.00000   0.00000  -0.00009  -0.00009  -6.98218
   Z11        7.18618   0.00000   0.00000   0.00021   0.00021   7.18639
   X12       -6.79018  -0.00000   0.00000   0.00000   0.00000  -6.79018
   Y12       -6.98145  -0.00000   0.00000   0.00000   0.00000  -6.98145
   Z12        7.12537  -0.00000   0.00000   0.00000   0.00000   7.12537
   X13       -6.39654  -0.00000   0.00000   0.00000   0.00000  -6.39654
   Y13       -8.47500  -0.00000   0.00000   0.00000   0.00000  -8.47500
   Z13        1.21201  -0.00000   0.00000   0.00000   0.00000   1.21201
   X14       -4.66305  -0.00000   0.00000   0.00000   0.00000  -4.66305
   Y14       -7.63753  -0.00000   0.00000   0.00000   0.00000  -7.63753
   Z14        7.97226  -0.00000   0.00000   0.00000   0.00000   7.97226
   X15       -6.52977  -0.00000   0.00000   0.00000   0.00000  -6.52977
   Y15        0.72534  -0.00000   0.00000   0.00000   0.00000   0.72534
   Z15        8.77271  -0.00000   0.00000   0.00000   0.00000   8.77271
   X16       -5.27373  -0.00000   0.00000   0.00000   0.00000  -5.27373
   Y16       -0.27619  -0.00000   0.00000   0.00000   0.00000  -0.27619
   Z16       -0.99695  -0.00000   0.00000   0.00000   0.00000  -0.99695
   X17       -6.32498  -0.00000   0.00000   0.00000   0.00000  -6.32498
   Y17      -10.08270  -0.00000   0.00000   0.00000   0.00000 -10.08270
   Z17       -0.11244  -0.00000   0.00000   0.00000   0.00000  -0.11244
   X18       -4.63355  -0.00000   0.00000   0.00000   0.00000  -4.63355
   Y18       -8.95827  -0.00000   0.00000   0.00000   0.00000  -8.95827
   Z18        9.58071  -0.00000   0.00000   0.00000   0.00000   9.58071
   X19      -14.23690  -0.00000   0.00000   0.00000   0.00000 -14.23690
   Y19       -3.30988  -0.00000   0.00000   0.00000   0.00000  -3.30988
   Z19        5.94204  -0.00000   0.00000   0.00000   0.00000   5.94204
   X20      -16.86616  -0.00000   0.00000   0.00000   0.00000 -16.86616
   Y20       -3.36328  -0.00000   0.00000   0.00000   0.00000  -3.36328
   Z20        6.06550  -0.00000   0.00000   0.00000   0.00000   6.06550
   X21      -18.17065  -0.00000   0.00000   0.00000   0.00000 -18.17065
   Y21       -5.17382  -0.00000   0.00000   0.00000   0.00000  -5.17382
   Z21        4.65857  -0.00000   0.00000   0.00000   0.00000   4.65857
   X22      -16.79864  -0.00000   0.00000   0.00000   0.00000 -16.79864
   Y22       -6.86999  -0.00000   0.00000   0.00000   0.00000  -6.86999
   Z22        3.17539  -0.00000   0.00000   0.00000   0.00000   3.17539
   X23      -14.17165  -0.00000   0.00000   0.00000   0.00000 -14.17165
   Y23       -6.69889  -0.00000   0.00000   0.00000   0.00000  -6.69889
   Z23        3.14927  -0.00000   0.00000   0.00000   0.00000   3.14927
   X24      -12.91531  -0.00000   0.00000   0.00000   0.00000 -12.91531
   Y24       -4.94935  -0.00000   0.00000   0.00000   0.00000  -4.94935
   Z24        4.50899  -0.00000   0.00000   0.00000   0.00000   4.50899
   X25      -20.22042  -0.00000   0.00000   0.00000   0.00000 -20.22042
   Y25       -5.26143  -0.00000   0.00000   0.00000   0.00000  -5.26143
   Z25        4.71697  -0.00000   0.00000   0.00000   0.00000   4.71697
   X26      -13.12027  -0.00000   0.00000   0.00000   0.00000 -13.12027
   Y26       -1.94712  -0.00000   0.00000   0.00000   0.00000  -1.94712
   Z26        6.99214  -0.00000   0.00000   0.00000   0.00000   6.99214
   X27      -17.85649  -0.00000   0.00000   0.00000   0.00000 -17.85649
   Y27       -2.00886  -0.00000   0.00000   0.00000   0.00000  -2.00886
   Z27        7.24314  -0.00000   0.00000   0.00000   0.00000   7.24314
   X28      -17.73520  -0.00000   0.00000   0.00000   0.00000 -17.73520
   Y28       -8.30676  -0.00000   0.00000   0.00000   0.00000  -8.30676
   Z28        2.05265  -0.00000   0.00000   0.00000   0.00000   2.05265
   X29      -13.00437  -0.00000   0.00000   0.00000   0.00000 -13.00437
   Y29       -7.96424  -0.00000   0.00000   0.00000   0.00000  -7.96424
   Z29        2.03436  -0.00000   0.00000   0.00000   0.00000   2.03436
   X30        0.18797   0.00027   0.00000   0.09780   0.09780   0.28578
   Y30        2.19274  -0.00020   0.00000   0.00448   0.00448   2.19722
   Z30       12.93349  -0.00051   0.00000  -0.00876  -0.00876  12.92473
   X31        1.87848  -0.00010   0.00000   0.07142   0.07142   1.94989
   Y31        2.05742   0.00017   0.00000   0.05070   0.05070   2.10812
   Z31       11.06084   0.00041   0.00000  -0.03504  -0.03504  11.02579
   X32        1.22263  -0.00002   0.00000   0.02993   0.02993   1.25256
   Y32        1.97639   0.00008   0.00000   0.02520   0.02520   2.00159
   Z32        8.30094  -0.00007   0.00000  -0.02432  -0.02432   8.27662
   X33        2.67921   0.00003   0.00000   0.04123   0.04123   2.72044
   Y33        0.07539   0.00021   0.00000   0.03974   0.03974   0.11513
   Z33        7.10774  -0.00023   0.00000  -0.03355  -0.03355   7.07419
   X34        2.35832  -0.00004   0.00000   0.00168   0.00168   2.36000
   Y34        0.04756   0.00005   0.00000   0.01218   0.01218   0.05974
   Z34        4.42768  -0.00004   0.00000  -0.02864  -0.02864   4.39905
   X35        3.15832  -0.00001   0.00000  -0.00433  -0.00433   3.15399
   Y35       -2.54358   0.00002   0.00000   0.00390   0.00390  -2.53968
   Z35        3.40186  -0.00001   0.00000  -0.01299  -0.01299   3.38887
   X36        3.23245   0.00000   0.00000  -0.01554  -0.01554   3.21691
   Y36       -2.56767  -0.00003   0.00000  -0.01858  -0.01858  -2.58626
   Z36        0.49896  -0.00001   0.00000  -0.01275  -0.01275   0.48621
   X37        1.54371  -0.00003   0.00000  -0.00131  -0.00131   1.54240
   Y37       -4.48893  -0.00000   0.00000   0.00906   0.00906  -4.47987
   Z37        4.03411   0.00005   0.00000   0.01163   0.01163   4.04574
   X38        0.76679  -0.00001   0.00000   0.12495   0.12495   0.89173
   Y38        2.30964  -0.00001   0.00000   0.02216   0.02216   2.33180
   Z38       14.90098  -0.00001   0.00000  -0.01779  -0.01779  14.88319
   X39       -1.83451   0.00055   0.00000   0.09367   0.09367  -1.74084
   Y39        2.16023  -0.00003   0.00000  -0.05232  -0.05232   2.10791
   Z39       12.55952   0.00004   0.00000   0.02235   0.02235  12.58187
   X40        3.89587  -0.00050   0.00000   0.07803   0.07803   3.97390
   Y40        2.03248   0.00004   0.00000   0.10657   0.10657   2.13905
   Z40       11.48547  -0.00005   0.00000  -0.06627  -0.06627  11.41920
   X41        1.65794  -0.00004   0.00000  -0.01189  -0.01189   1.64605
   Y41        3.83967  -0.00010   0.00000   0.02652   0.02652   3.86619
   Z41        7.44620   0.00004   0.00000  -0.04217  -0.04217   7.40403
   X42       -0.80721   0.00013   0.00000   0.03160   0.03160  -0.77561
   Y42        1.60981   0.00001   0.00000  -0.00724  -0.00724   1.60257
   Z42        8.03356   0.00002   0.00000   0.00866   0.00866   8.04222
   X43        3.50274  -0.00007   0.00000  -0.01577  -0.01577   3.48697
   Y43        1.57192  -0.00007   0.00000   0.00776   0.00776   1.57968
   Z43        3.58456   0.00004   0.00000  -0.05954  -0.05954   3.52501
   X44        0.36550   0.00006   0.00000  -0.00613  -0.00613   0.35937
   Y44        0.37120  -0.00000   0.00000   0.00015   0.00015   0.37135
   Z44        3.93922   0.00004   0.00000  -0.00312  -0.00312   3.93610
   X45        5.08455   0.00000   0.00000  -0.00117  -0.00117   5.08338
   Y45       -2.92212   0.00000   0.00000   0.00984   0.00984  -2.91228
   Z45        4.12447   0.00000   0.00000  -0.01843  -0.01843   4.10604
   X46        3.76806   0.00000   0.00000  -0.01782  -0.01782   3.75023
   Y46       -4.43260  -0.00001   0.00000  -0.02355  -0.02355  -4.45615
   Z46       -0.17498   0.00000   0.00000  -0.00097  -0.00097  -0.17595
   X47        1.45533  -0.00000   0.00000  -0.01808  -0.01808   1.43725
   Y47       -1.94940  -0.00000   0.00000  -0.02427  -0.02427  -1.97366
   Z47       -0.33242  -0.00000   0.00000  -0.01143  -0.01143  -0.34385
   X48       17.61915  -0.00000   0.00000   0.00000   0.00000  17.61915
   Y48       14.88838  -0.00000   0.00000   0.00000   0.00000  14.88838
   Z48      -17.79806  -0.00000   0.00000   0.00000   0.00000 -17.79806
   X49       16.58271  -0.00000   0.00000   0.00000   0.00000  16.58271
   Y49       16.37692  -0.00000   0.00000   0.00000   0.00000  16.37692
   Z49      -20.08303  -0.00000   0.00000   0.00000   0.00000 -20.08303
   X50       13.73912  -0.00000   0.00000   0.00000   0.00000  13.73912
   Y50       16.29489  -0.00000   0.00000   0.00000   0.00000  16.29489
   Z50      -20.54615  -0.00000   0.00000   0.00000   0.00000 -20.54615
   X51       17.59910  -0.00000   0.00000   0.00000   0.00000  17.59910
   Y51       15.62936  -0.00000   0.00000   0.00000   0.00000  15.62936
   Z51      -21.73414  -0.00000   0.00000   0.00000   0.00000 -21.73414
   X52       17.15535  -0.00000   0.00000   0.00000   0.00000  17.15535
   Y52       18.33393  -0.00000   0.00000   0.00000   0.00000  18.33393
   Z52      -19.74950  -0.00000   0.00000   0.00000   0.00000 -19.74950
   X53       13.42382  -0.00000   0.00000   0.00000   0.00000  13.42382
   Y53       17.30425  -0.00000   0.00000   0.00000   0.00000  17.30425
   Z53      -22.32412  -0.00000   0.00000   0.00000   0.00000 -22.32412
   X54       13.00838  -0.00000   0.00000   0.00000   0.00000  13.00838
   Y54       14.38781  -0.00000   0.00000   0.00000   0.00000  14.38781
   Z54      -20.81292  -0.00000   0.00000   0.00000   0.00000 -20.81292
   X55       12.62969  -0.00000   0.00000   0.00000   0.00000  12.62969
   Y55       17.25110  -0.00000   0.00000   0.00000   0.00000  17.25110
   Z55      -19.08670  -0.00000   0.00000   0.00000   0.00000 -19.08670
   X56       15.85821  -0.00000   0.00000   0.00000   0.00000  15.85821
   Y56       15.21096  -0.00000   0.00000   0.00000   0.00000  15.21096
   Z56      -15.55558  -0.00000   0.00000   0.00000   0.00000 -15.55558
   X57       16.70475  -0.00000   0.00000   0.00000   0.00000  16.70475
   Y57       13.99330  -0.00000   0.00000   0.00000   0.00000  13.99330
   Z57      -13.08109  -0.00000   0.00000   0.00000   0.00000 -13.08109
   X58       14.03717  -0.00000   0.00000   0.00000   0.00000  14.03717
   Y58       14.43907  -0.00000   0.00000   0.00000   0.00000  14.43907
   Z58      -16.12249  -0.00000   0.00000   0.00000   0.00000 -16.12249
   X59       15.62049  -0.00000   0.00000   0.00000   0.00000  15.62049
   Y59       17.25043  -0.00000   0.00000   0.00000   0.00000  17.25043
   Z59      -15.31367  -0.00000   0.00000   0.00000   0.00000 -15.31367
   X60       15.23260  -0.00000   0.00000   0.00000   0.00000  15.23260
   Y60       14.35284  -0.00000   0.00000   0.00000   0.00000  14.35284
   Z60      -11.67320  -0.00000   0.00000   0.00000   0.00000 -11.67320
   X61       16.91441  -0.00000   0.00000   0.00000   0.00000  16.91441
   Y61       11.94506  -0.00000   0.00000   0.00000   0.00000  11.94506
   Z61      -13.23950  -0.00000   0.00000   0.00000   0.00000 -13.23950
   X62       18.46306  -0.00000   0.00000   0.00000   0.00000  18.46306
   Y62       14.78657  -0.00000   0.00000   0.00000   0.00000  14.78657
   Z62      -12.34523  -0.00000   0.00000   0.00000   0.00000 -12.34523
   X63       20.19810  -0.00000   0.00000   0.00000   0.00000  20.19810
   Y63       16.03109  -0.00000   0.00000   0.00000   0.00000  16.03109
   Z63      -17.11126  -0.00000   0.00000   0.00000   0.00000 -17.11126
   X64       22.02451  -0.00000   0.00000   0.00000   0.00000  22.02451
   Y64       16.46756  -0.00000   0.00000   0.00000   0.00000  16.46756
   Z64      -19.30268  -0.00000   0.00000   0.00000   0.00000 -19.30268
   X65       21.03030  -0.00000   0.00000   0.00000   0.00000  21.03030
   Y65       14.74201  -0.00000   0.00000   0.00000   0.00000  14.74201
   Z65      -15.73454  -0.00000   0.00000   0.00000   0.00000 -15.73454
   X66       19.77883  -0.00000   0.00000   0.00000   0.00000  19.77883
   Y66       17.81194  -0.00000   0.00000   0.00000   0.00000  17.81194
   Z66      -16.14593  -0.00000   0.00000   0.00000   0.00000 -16.14593
   X67       23.88938  -0.00000   0.00000   0.00000   0.00000  23.88938
   Y67       16.83268  -0.00000   0.00000   0.00000   0.00000  16.83268
[...]
 0.,0.,0.,0.,0.,0.,0.,0.,0.,0.,0.,0.,0.,0.,0.,0.,0.,0.,0.,0.,0.,0.,0.,0
 .,0.,0.,0.,0.,0.,0.,0.,0.,0.,0.,0.,0.,0.,0.,0.,0.,0.,0.,0.,0.,0.,0.,0.
 ,0.,0.,0.,0.,0.,0.,0.,0.,0.,0.,0.,0.,0.,0.,0.,0.,0.,0.,0.,0.,0.,0.,0.,
 0.,0.,0.,0.,0.,0.,0.,0.,0.,0.,0.,0.,0.,0.,0.,0.,0.,0.,0.,0.,0.,0.,0.,0
 .,0.,0.,0.,0.,0.,0.,0.,0.,0.,0.,0.,0.,0.,0.,0.,0.,0.,0.,0.,0.,0.,0.,0.
 ,0.,0.,0.,0.,0.,0.,0.,0.,0.,0.,0.,0.,0.,0.,0.,0.,0.,0.,0.,0.,0.,0.,0.,
 0.,0.,0.,0.,0.,0.,0.,0.,0.,0.,0.,0.,0.,0.,0.,0.,0.,0.,0.,0.,0.,0.,0.,0
 .,0.,0.,0.,0.,0.,0.,0.,0.,0.,0.,0.,0.,0.,0.,0.,0.,0.,0.,0.,0.,0.,0.,0.
 ,0.,0.,0.,0.,0.,0.,0.,0.,0.,0.,0.,0.,0.,0.,0.,0.,0.,0.,0.,0.,0.,0.,0.,
 0.,0.,0.,0.,0.,0.,0.,0.,0.,0.,0.,0.,0.,0.,0.,0.,0.,0.,0.,0.,0.,0.,0.,0
 .,0.,0.,0.,0.,0.,0.,0.,0.,0.,0.,0.,0.,0.,0.,0.,0.,0.,0.,0.,0.,0.,0.,0.
 ,0.,0.,0.,0.,0.,0.,0.,0.,0.,0.,0.,0.,0.,0.,0.,0.,0.,0.,0.,0.,0.,0.,0.,
 0.,0.,0.,0.,0.,0.,0.,0.,0.,0.,0.,0.,0.,0.,0.,0.,0.,0.,0.,0.,0.,0.,0.,0
 .,0.,0.,0.,0.,0.,0.,0.,0.,0.,0.,0.,0.,0.,0.,0.,0.,0.,0.,0.,0.,0.,0.,0.
 ,0.,0.,0.,0.,0.,0.,0.,0.,0.,0.,0.,0.,0.,0.,0.,0.,0.,0.,0.,0.,0.,0.,0.,
 0.,0.,0.,0.,0.,0.,0.,0.,0.,0.,0.,0.,0.,0.,0.,0.,0.,0.,0.,0.,0.,0.,0.,0
 .,0.,0.,0.,0.,0.,0.,0.,0.,0.,0.,0.,0.,0.,0.,0.,0.,0.,0.,0.,0.,0.,0.,0.
 ,0.,0.,0.,0.,0.,0.,0.,0.,0.,0.,0.,0.,0.,0.,0.,0.,0.,0.,0.,0.,0.,0.,0.,
 0.,0.,0.,0.,0.,0.,0.,0.,0.,0.,0.,0.,0.,0.,0.,0.,0.,0.,0.,0.,0.,0.,0.,0
 .,0.,0.,0.,0.,0.,0.,0.,0.,0.,0.,0.,0.,0.,0.,0.,0.,0.,0.,0.,0.,0.,0.,0.
 ,0.,0.,0.,0.,0.,0.,0.,0.,0.,0.,0.,0.,0.,0.,0.,0.,0.,0.,0.,0.,0.,0.,0.,
 0.,0.,0.,0.,0.,0.,0.,0.,0.,0.,0.,0.,0.,0.,0.,0.,0.,0.,0.,0.,0.,0.,0.,0
 .,0.,0.,0.,0.,0.,0.,0.,0.,0.,0.,0.,0.,0.,0.,0.,0.,0.,0.,0.,0.,0.,0.,0.
 ,0.,0.,0.,0.,0.,0.,0.,0.,0.,0.,0.,0.,0.,0.,0.,0.,0.,0.,0.,0.,0.,0.,0.,
 0.,0.,0.,0.,0.,0.,0.,0.,0.,0.,0.,0.,0.,0.,0.,0.,0.,0.,0.,0.,0.,0.,0.,0
 .,0.,0.,0.,0.,0.,0.,0.,0.,0.,0.,0.,0.,0.,0.,0.,0.,0.,0.,0.,0.,0.,0.,0.
 ,0.,0.,0.,0.,0.,0.,0.,0.,0.,0.,0.,0.,0.,0.,0.,0.,0.,0.,0.,0.,0.,0.,0.,
 0.,0.,0.,0.,0.,0.,0.,0.,0.,0.,0.,0.,0.,0.,0.,0.,0.,0.,0.,0.,0.,0.,0.,0
 .,0.,0.,0.,0.,0.,0.,0.,0.,0.,0.,0.,0.,0.,0.,0.,0.,0.,0.,0.,0.,0.,0.,0.
 ,0.,0.,0.,0.,0.,0.,0.,0.,0.,0.,0.,0.,0.,0.,0.,0.,0.,0.,0.,0.,0.,0.,0.,
 0.,0.,0.,0.,0.,0.,0.,0.,0.,0.,0.,0.,0.,0.,0.,0.,0.,0.,0.,0.,0.,0.,0.,0
 .,0.,0.,0.,0.,0.,0.,0.,0.,0.,0.,0.,0.,0.,0.,0.,0.,0.,0.,0.,0.,0.,0.,0.
 ,0.,0.,0.,0.,0.,0.,0.,0.,0.,0.,0.,0.,0.,0.,0.,0.,0.,0.,0.,0.,0.,0.,0.,
 0.,0.,0.,0.,0.,0.,0.,0.,0.,0.,0.,0.,0.,0.,0.,0.,0.,0.,0.,0.,0.,0.,0.,0
 .,0.,0.,0.,0.,0.,0.,0.,0.,0.,0.,0.,0.,0.,0.,0.,0.,0.,0.,0.,0.,0.,0.,0.
 ,0.,0.,0.,0.,0.,0.,0.,0.,0.,0.,0.,0.,0.,0.,0.,0.,0.,0.,0.,0.,0.,0.,0.,
 0.,0.,0.,0.,0.,0.,0.,0.,0.,0.,0.,0.,0.,0.,0.,0.,0.,0.,0.,0.,0.,0.,0.,0
 .,0.,0.,0.,0.,0.,0.,0.,0.,0.,0.,0.,0.,0.,0.,0.,0.,0.,0.,0.,0.,0.,0.,0.
 ,0.,0.,0.,0.,0.,0.,0.,0.,0.,0.,0.,0.,0.,0.,0.,0.,0.,0.,0.,0.,0.,0.,0.,
 0.,0.,0.,0.,0.,0.,0.,0.,0.,0.,0.,0.,0.,0.,0.,0.,0.,0.,0.,0.,0.,0.,0.,0
 .,0.,0.,0.,0.,0.,0.,0.,0.,0.,0.,0.,0.,0.,0.,0.,0.,0.,0.,0.,0.,0.,0.,0.
 ,0.,0.,0.,0.,0.,0.,0.,0.,0.,0.,0.,0.,0.,0.,0.,0.,0.,0.,0.,0.,0.,0.,0.,
 0.,0.,0.,0.,0.,0.,0.,0.,0.,0.,0.,0.,0.,0.,0.,0.,0.,0.,0.,0.,0.,0.,0.,0
 .,0.,0.,0.,0.,0.,0.,0.,0.,0.,0.,0.,0.,0.,0.,0.,0.,0.,0.,0.,0.,0.,0.,0.
 ,0.,0.,0.,0.,0.,0.,0.,0.,0.,0.,0.,0.,0.,0.,0.,0.,0.,0.,0.,0.,0.,0.,0.,
 0.,0.,0.,0.,0.,0.,0.,0.,0.,0.,0.,0.,0.,0.,0.,0.,0.,0.,0.,0.,0.,0.,0.,0
 .,0.,0.,0.,0.,0.,0.,0.,0.,0.,0.,0.,0.,0.,0.,0.,0.,0.,0.,0.,0.,0.,0.,0.
 ,0.,0.,0.,0.,0.,0.,0.,0.,0.,0.,0.,0.,0.,0.,0.,0.,0.,0.,0.,0.,0.,0.,0.,
 0.,0.,0.,0.,0.,0.,0.,0.,0.,0.,0.,0.,0.,0.,0.,0.,0.,0.,0.,0.,0.,0.,0.,0
 .,0.,0.,0.,0.,0.,0.,0.,0.,0.,0.,0.,0.,0.,0.,0.,0.,0.,0.,0.,0.,0.,0.,0.
 ,0.,0.,0.,0.,0.,0.,0.,0.,0.,0.,0.,0.,0.,0.,0.,0.,0.,0.,0.,0.,0.,0.,0.,
 0.,0.,0.,0.,0.,0.,0.,0.,0.,0.,0.,0.,0.,0.,0.,0.,0.,0.,0.,0.,0.,0.,0.,0
 .,0.,0.,0.,0.,0.,0.,0.,0.,0.,0.,0.,0.,0.,0.,0.,0.,0.,0.,0.,0.,0.,0.,0.
 ,0.,0.,0.,0.,0.,0.,0.,0.,0.,0.,0.,0.,0.,0.,0.,0.,0.,0.,0.,0.,0.,0.,0.,
 0.,0.,0.,0.,0.,0.,0.,0.,0.,0.,0.,0.,0.,0.,0.,0.,0.,0.,0.,0.,0.,0.,0.,0
 .,0.,0.,0.,0.,0.,0.,0.,0.,0.,0.,0.,0.,0.,0.,0.,0.,0.,0.,0.,0.,0.,0.,0.
 ,0.,0.,0.,0.,0.,0.,0.,0.,0.,0.,0.,0.,0.,0.,0.,0.,0.,0.,0.,0.,0.,0.,0.,
 0.,0.,0.,0.,0.,0.,0.,0.,0.,0.,0.,0.,0.,0.,0.,0.,0.,0.,0.,0.,0.,0.,0.,0
 .,0.,0.,0.,0.,0.,0.,0.,0.,0.,0.,0.,0.,0.,0.,0.,0.,0.,0.,0.,0.,0.,0.,0.
 ,0.,0.,0.,0.,0.,0.,0.,0.,0.,0.,0.,0.,0.,0.,0.,0.,0.,0.,0.,0.,0.,0.,0.,
 0.,0.,0.,0.,0.,0.,0.,0.,0.,0.,0.,0.,0.,0.,0.,0.,0.,0.,0.,0.,0.,0.,0.,0
 .,0.,0.,0.,0.,0.,0.,0.,0.,0.,0.,0.,0.,0.,0.,0.,0.,0.,0.,0.,0.,0.,0.,0.
 ,0.,0.,0.,0.,0.,0.,0.,0.,0.,0.,0.,0.,0.,0.,0.,0.,0.,0.,0.,0.,0.,0.,0.,
 0.,0.,0.,0.,0.,0.,0.,0.,0.,0.,0.,0.,0.,0.,0.,0.,0.,0.,0.,0.,0.,0.,0.,0
 .,0.,0.,0.,0.,0.,0.,0.,0.,0.,0.,0.,0.,0.,0.,0.,0.,0.,0.,0.,0.,0.,0.,0.
 ,0.,0.,0.,0.,0.,0.,0.,0.,0.,0.,0.,0.,0.,0.,0.,0.,0.,0.,0.,0.,0.,0.,0.,
 0.,0.,0.,0.,0.,0.,0.,0.,0.,0.,0.,0.,0.,0.,0.,0.,0.,0.,0.,0.,0.,0.,0.,0
 .,0.,0.,0.,0.,0.,0.,0.,0.,0.,0.,0.,0.,0.,0.,0.,0.,0.,0.,0.,0.,0.,0.,0.
 ,0.,0.,0.,0.,0.,0.,0.,0.,0.,0.,0.,0.,0.,0.,0.,0.,0.,0.,0.,0.,0.,0.,0.,
 0.,0.,0.,0.,0.,0.,0.,0.,0.,0.,0.,0.,0.,0.,0.,0.,0.,0.,0.,0.,0.,0.,0.,0
 .,0.,0.,0.,0.,0.,0.,0.,0.,0.,0.,0.,0.,0.,0.,0.,0.,0.,0.,0.,0.,0.,0.,0.
 ,0.,0.,0.,0.,0.,0.,0.,0.,0.,0.,0.,0.,0.,0.,0.,0.,0.,0.,0.,0.,0.,0.,0.,
 0.,0.,0.,0.,0.,0.,0.,0.,0.,0.,0.,0.,0.,0.,0.,0.,0.,0.,0.,0.,0.,0.,0.,0
 .,0.,0.,0.,0.,0.,0.,0.,0.,0.,0.,0.,0.,0.,0.,0.,0.,0.,0.,0.,0.,0.,0.,0.
 ,0.,0.,0.,0.,0.,0.,0.,0.,0.,0.,0.,0.,0.,0.,0.,0.,0.,0.,0.,0.,0.,0.,0.,
 0.,0.,0.,0.,0.,0.,0.,0.,0.,0.,0.,0.,0.,0.,0.,0.,0.,0.,0.,0.,0.,0.,0.,0
 .,0.,0.,0.,0.,0.,0.,0.,0.,0.,0.,0.,0.,0.,0.,0.,0.,0.,0.,0.,0.,0.,0.,0.
 ,0.,0.,0.,0.,0.,0.,0.,0.,0.,0.,0.,0.,0.,0.,0.,0.,0.,0.,0.,0.,0.,0.,0.,
 0.,0.,0.,0.,0.,0.,0.,0.,0.,0.,0.,0.,0.,0.,0.,0.,0.,0.,0.,0.,0.,0.,0.,0
 .,0.,0.,0.,0.,0.,0.,0.,0.,0.,0.,0.,0.,0.,0.,0.,0.,0.,0.,0.,0.,0.,0.,0.
 ,0.,0.,0.,0.,0.,0.,0.,0.,0.,0.,0.,0.,0.,0.,0.,0.,0.,0.,0.,0.,0.,0.,0.,
 0.,0.,0.,0.,0.,0.,0.,0.,0.,0.,0.,0.,0.,0.,0.,0.,0.,0.,0.,0.,0.,0.,0.,0
 .,0.,0.,0.,0.,0.,0.,0.,0.,0.,0.,0.,0.,0.,0.,0.,0.,0.,0.,0.,0.,0.,0.,0.
 ,0.,0.,0.,0.,0.,0.,0.,0.,0.,0.,0.,0.,0.,0.,0.,0.,0.,0.,0.,0.,0.,0.,0.,
 0.,0.,0.,0.,0.,0.,0.,0.,0.,0.,0.,0.,0.,0.,0.,0.,0.,0.,0.,0.,0.,0.,0.,0
 .,0.,0.,0.,0.,0.,0.,0.,0.,0.,0.,0.,0.,0.,0.,0.,0.,0.,0.,0.,0.,0.,0.,0.
 ,0.,0.,0.,0.,0.,0.,0.,0.,0.,0.,0.,0.,0.,0.,0.,0.,0.,0.,0.,0.,0.,0.,0.,
 0.,0.,0.,0.,0.,0.,0.,0.,0.,0.,0.,0.,0.,0.,0.,0.,0.,0.,0.,0.,0.,0.,0.,0
 .,0.,0.,0.,0.,0.,0.,0.,0.,0.,0.,0.,0.,0.,0.,0.,0.,0.,0.,0.,0.,0.,0.,0.
 ,0.,0.,0.,0.,0.,0.,0.,0.,0.,0.,0.,0.,0.,0.,0.,0.,0.,0.,0.,0.,0.,0.,0.,
 0.,0.,0.,0.,0.,0.,0.,0.,0.,0.,0.,0.,0.,0.,0.,0.,0.,0.,0.,0.,0.,0.,0.,0
 .,0.,0.,0.,0.,0.,0.,0.,0.,0.,0.,0.,0.,0.,0.,0.,0.,0.,0.,0.,0.,0.,0.,0.
 ,0.,0.,0.,0.,0.,0.,0.,0.,0.,0.,0.,0.,0.,0.,0.,0.,0.,0.,0.,0.,0.,0.,0.,
 0.,0.,0.,0.,0.,0.,0.,0.,0.,0.,0.,0.,0.,0.,0.,0.,0.,0.,0.,0.,0.,0.,0.,0
 .,0.,0.,0.,0.,0.,0.,0.,0.,0.,0.,0.,0.,0.,0.,0.,0.,0.,0.,0.,0.,0.,0.,0.
 ,0.,0.,0.,0.,0.,0.,0.,0.,0.,0.,0.,0.,0.,0.,0.,0.,0.,0.,0.,0.,0.,0.,0.,
 0.,0.,0.,0.,0.,0.,0.,0.,0.,0.,0.,0.,0.,0.,0.,0.,0.,0.,0.,0.,0.,0.,0.,0
 .,0.,0.,0.,0.,0.,0.,0.,0.,0.,0.,0.,0.,0.,0.,0.,0.,0.,0.,0.,0.,0.,0.,0.
 ,0.,0.,0.,0.,0.,0.,0.,0.,0.,0.,0.,0.,0.,0.,0.,0.,0.,0.,0.,0.,0.,0.,0.,
 0.,0.,0.,0.,0.,0.,0.,0.,0.,0.,0.,0.,0.,0.,0.,0.,0.,0.,0.,0.,0.,0.,0.,0
 .,0.,0.,0.,0.,0.,0.,0.,0.,0.,0.,0.,0.,0.,0.,0.,0.,0.,0.,0.,0.,0.,0.,0.
 ,0.,0.,0.,0.,0.,0.,0.,0.,0.,0.,0.,0.,0.,0.,0.,0.,0.,0.,0.,0.,0.,0.,0.,
 0.,0.,0.,0.,0.,0.,0.,0.,0.,0.,0.,0.,0.,0.,0.,0.,0.,0.,0.,0.,0.,0.,0.,0
 .,0.,0.,0.,0.,0.,0.,0.,0.,0.,0.,0.,0.,0.,0.,0.,0.,0.,0.,0.,0.,0.,0.,0.
 ,0.,0.,0.,0.,0.,0.,0.,0.,0.,0.,0.,0.,0.,0.,0.,0.,0.,0.,0.,0.,0.,0.,0.,
 0.,0.,0.,0.,0.,0.,0.,0.,0.,0.,0.,0.,0.,0.,0.,0.,0.,0.,0.,0.,0.,0.,0.,0
 .,0.,0.,0.,0.,0.,0.,0.,0.,0.,0.,0.,0.,0.,0.,0.,0.,0.,0.,0.,0.,0.,0.,0.
 ,0.,0.,0.,0.,0.,0.,0.,0.,0.,0.,0.,0.,0.,0.,0.,0.,0.,0.,0.,0.,0.,0.,0.,
 0.,0.,0.,0.,0.,0.,0.,0.,0.,0.,0.,0.,0.,0.,0.,0.,0.,0.,0.,0.,0.,0.,0.,0
 .,0.,0.,0.,0.,0.,0.,0.,0.,0.,0.,0.,0.,0.,0.,0.,0.,0.,0.,0.,0.,0.,0.,0.
 ,0.,0.,0.,0.,0.,0.,0.,0.,0.,0.,0.,0.,0.,0.,0.,0.,0.,0.,0.,0.,0.,0.,0.,
 0.,0.,0.,0.,0.,0.,0.,0.,0.,0.,0.,0.,0.,0.,0.,0.,0.,0.,0.,0.,0.,0.,0.,0
 .,0.,0.,0.,0.,0.,0.,0.,0.,0.,0.,0.,0.,0.,0.,0.,0.,0.,0.,0.,0.,0.,0.,0.
 ,0.,0.,0.,0.,0.,0.,0.,0.,0.,0.,0.,0.,0.,0.,0.,0.,0.,0.,0.,0.,0.,0.,0.,
 0.,0.,0.,0.,0.,0.,0.,0.,0.,0.,0.,0.,0.,0.,0.,0.,0.,0.,0.,0.,0.,0.,0.,0
 .,0.,0.,0.,0.,0.,0.,0.,0.,0.,0.,0.,0.,0.,0.,0.,0.,0.,0.,0.,0.,0.,0.,0.
 ,0.,0.,0.,0.,0.,0.,0.,0.,0.,0.,0.,0.,0.,0.,0.,0.,0.,0.,0.,0.,0.,0.,0.,
 0.,0.,0.,0.,0.,0.,0.,0.,0.,0.,0.,0.,0.,0.,0.,0.,0.,0.,0.,0.,0.,0.,0.,0
 .,0.,0.,0.,0.,0.,0.,0.,0.,0.,0.,0.,0.,0.,0.,0.,0.,0.,0.,0.,0.,0.,0.,0.
 ,0.,0.,0.,0.,0.,0.,0.,0.,0.,0.,0.,0.,0.,0.,0.,0.,0.,0.,0.,0.,0.,0.,0.,
 0.,0.,0.,0.,0.,0.,0.,0.,0.,0.,0.,0.,0.,0.,0.,0.,0.,0.,0.,0.,0.,0.,0.,0
 .,0.,0.,0.,0.,0.,0.,0.,0.,0.,0.,0.,0.,0.,0.,0.,0.,0.,0.,0.,0.,0.,0.,0.
 ,0.,0.,0.,0.,0.,0.,0.,0.,0.,0.,0.,0.,0.,0.,0.,0.,0.,0.,0.,0.,0.,0.,0.,
 0.,0.,0.,0.,0.,0.,0.,0.,0.,0.,0.,0.,0.,0.,0.,0.,0.,0.,0.,0.,0.,0.,0.,0
 .,0.,0.,0.,0.,0.,0.,0.,0.,0.,0.,0.,0.,0.,0.,0.,0.,0.,0.,0.,0.,0.,0.,0.
 ,0.,0.,0.,0.,0.,0.,0.,0.,0.,0.,0.,0.,0.,0.,0.,0.,0.,0.,0.,0.,0.,0.,0.,
 0.,0.,0.,0.,0.,0.,0.,0.,0.,0.,0.,0.,0.,0.,0.,0.,0.,0.,0.,0.,0.,0.,0.,0
 .,0.,0.,0.,0.,0.,0.,0.,0.,0.,0.,0.,0.,0.,0.,0.,0.,0.,0.,0.,0.,0.,0.,0.
 ,0.,0.,0.,0.,0.,0.,0.,0.,0.,0.,0.,0.,0.,0.,0.,0.,0.,0.,0.,0.,0.,0.,0.,
 0.,0.,0.,0.,0.,0.,0.,0.,0.,0.,0.,0.,0.,0.,0.,0.,0.,0.,0.,0.,0.,0.,0.,0
 .,0.,0.,0.,0.,0.,0.,0.,0.,0.,0.,0.,0.,0.,0.,0.,0.,0.,0.,0.,0.,0.,0.,0.
 ,0.,0.,0.,0.,0.,0.,0.,0.,0.,0.,0.,0.,0.,0.,0.,0.,0.,0.,0.,0.,0.,0.,0.,
 0.,0.,0.,0.,0.,0.,0.,0.,0.,0.,0.,0.,0.,0.,0.,0.,0.,0.,0.,0.,0.,0.,0.,0
 .,0.,0.,0.,0.,0.,0.,0.,0.,0.,0.,0.,0.,0.,0.,0.,0.,0.,0.,0.,0.,0.,0.,0.
 ,0.,0.,0.,0.,0.,0.,0.,0.,0.,0.,0.,0.,0.,0.,0.,0.,0.,0.,0.,0.,0.,0.,0.,
 0.,0.,0.,0.,0.,0.,0.,0.,0.,0.,0.,0.,0.,0.,0.,0.,0.,0.,0.,0.,0.,0.,0.,0
 .,0.,0.,0.,0.,0.,0.,0.,0.,0.,0.,0.,0.,0.,0.,0.,0.,0.,0.,0.,0.,0.,0.,0.
 ,0.,0.,0.,0.,0.,0.,0.,0.,0.,0.,0.,0.,0.,0.,0.,0.,0.,0.,0.,0.,0.,0.,0.,
 0.,0.,0.,0.,0.,0.,0.,0.,0.,0.,0.,0.,0.,0.,0.,0.,0.,0.,0.,0.,0.,0.,0.,0
 .,0.,0.,0.,0.,0.,0.,0.,0.,0.,0.,0.,0.,0.,0.,0.,0.,0.,0.,0.,0.,0.,0.,0.
 ,0.,0.,0.,0.,0.,0.,0.,0.,0.,0.,0.,0.,0.,0.,0.,0.,0.,0.,0.,0.,0.,0.,0.,
 0.,0.,0.,0.,0.,0.,0.,0.,0.,0.,0.,0.,0.,0.,0.,0.,0.,0.,0.,0.,0.,0.,0.,0
 .,0.,0.,0.,0.,0.,0.,0.,0.,0.,0.,0.,0.,0.,0.,0.,0.,0.,0.,0.,0.,0.,0.,0.
 ,0.,0.,0.,0.,0.,0.,0.,0.,0.,0.,0.,0.,0.,0.,0.,0.,0.,0.,0.,0.,0.,0.,0.,
 0.,0.,0.,0.,0.,0.,0.,0.,0.,0.,0.,0.,0.,0.,0.,0.,0.,0.,0.,0.,0.,0.,0.,0
 .,0.,0.,0.,0.,0.,0.,0.,0.,0.,0.,0.,0.,0.,0.,0.,0.,0.,0.,0.,0.,0.,0.,0.
 ,0.,0.,0.,0.,0.,0.,0.,0.,0.,0.,0.,0.,0.,0.,0.,0.,0.,0.,0.,0.,0.,0.,0.,
 0.,0.,0.,0.,0.,0.,0.,0.,0.,0.,0.,0.,0.,0.,0.,0.,0.,0.,0.,0.,0.,0.,0.,0
 .,0.,0.,0.,0.,0.,0.,0.,0.,0.,0.,0.,0.,0.,0.,0.,0.,0.,0.,0.,0.,0.,0.,0.
 ,0.,0.,0.,0.,0.,0.,0.,0.,0.,0.,0.,0.,0.,0.,0.,0.,0.,0.,0.,0.,0.,0.,0.,
 0.,0.,0.,0.,0.,0.,0.,0.,0.,0.,0.,0.,0.,0.,0.,0.,0.,0.,0.,0.,0.,0.,0.,0
 .,0.,0.,0.,0.,0.,0.,0.,0.,0.,0.,0.,0.,0.,0.,0.,0.,0.,0.,0.,0.,0.,0.,0.
 ,0.,0.,0.,0.,0.,0.,0.,0.,0.,0.,0.,0.,0.,0.,0.,0.,0.,0.,0.,0.,0.,0.,0.,
 0.,0.,0.,0.,0.,0.,0.,0.,0.,0.,0.,0.,0.,0.,0.,0.,0.,0.,0.,0.,0.,0.,0.,0
 .,0.,0.,0.,0.,0.,0.,0.,0.,0.,0.,0.,0.,0.,0.,0.,0.,0.,0.,0.,0.,0.,0.,0.
 ,0.,0.,0.,0.,0.,0.,0.,0.,0.,0.,0.,0.,0.,0.,0.,0.,0.,0.,0.,0.,0.,0.,0.,
 0.,0.,0.,0.,0.,0.,0.,0.,0.,0.,0.,0.,0.,0.,0.,0.,0.,0.,0.,0.,0.,0.,0.,0
 .,0.,0.,0.,0.,0.,0.,0.,0.,0.,0.,0.,0.,0.,0.,0.,0.,0.,0.,0.,0.,0.,0.,0.
 ,0.,0.,0.,0.,0.,0.,0.,0.,0.,0.,0.,0.,0.,0.,0.,0.,0.,0.,0.,0.,0.,0.,0.,
 0.,0.,0.,0.,0.,0.,0.,0.,0.,0.,0.,0.,0.,0.,0.,0.,0.,0.,0.,0.,0.,0.,0.,0
 .,0.,0.,0.,0.,0.,0.,0.,0.,0.,0.,0.,0.,0.,0.,0.,0.,0.,0.,0.,0.,0.,0.,0.
 ,0.,0.,0.,0.,0.,0.,0.,0.,0.,0.,0.,0.,0.,0.,0.,0.,0.,0.,0.,0.,0.,0.,0.,
 0.,0.,0.,0.,0.,0.,0.,0.,0.,0.,0.,0.,0.,0.,0.,0.,0.,0.,0.,0.,0.,0.,0.,0
 .,0.,0.,0.,0.,0.,0.,0.,0.,0.,0.,0.,0.,0.,0.,0.,0.,0.,0.,0.,0.,0.,0.,0.
 ,0.,0.,0.,0.,0.,0.,0.,0.,0.,0.,0.,0.,0.,0.,0.,0.,0.,0.,0.,0.,0.,0.,0.,
 0.,0.,0.,0.,0.,0.,0.,0.,0.,0.,0.,0.,0.,0.,0.,0.,0.,0.,0.,0.,0.,0.,0.,0
 .,0.,0.,0.,0.,0.,0.,0.,0.,0.,0.,0.,0.,0.,0.,0.,0.,0.,0.,0.,0.,0.,0.,0.
 ,0.,0.,0.,0.,0.,0.,0.,0.,0.,0.,0.,0.,0.,0.,0.,0.,0.,0.,0.,0.,0.,0.,0.,
 0.,0.,0.,0.,0.,0.,0.,0.,0.,0.,0.,0.,0.,0.,0.,0.,0.,0.,0.,0.,0.,0.,0.,0
 .,0.,0.,0.,0.,0.,0.,0.,0.,0.,0.,0.,0.,0.,0.,0.,0.,0.,0.,0.,0.,0.,0.,0.
 ,0.,0.,0.,0.,0.,0.,0.,0.,0.,0.,0.,0.,0.,0.,0.,0.,0.,0.,0.,0.,0.,0.,0.,
 0.,0.,0.,0.,0.,0.,0.,0.,0.,0.,0.,0.,0.,0.,0.,0.,0.,0.,0.,0.,0.,0.,0.,0
 .,0.,0.,0.,0.,0.,0.,0.,0.,0.,0.,0.,0.,0.,0.,0.,0.,0.,0.,0.,0.,0.,0.,0.
 ,0.,0.,0.,0.,0.,0.,0.,0.,0.,0.,0.,0.,0.,0.,0.,0.,0.,0.,0.,0.,0.,0.,0.,
 0.,0.,0.,0.,0.,0.,0.,0.,0.,0.,0.,0.,0.,0.,0.,0.,0.,0.,0.,0.,0.,0.,0.,0
 .,0.,0.,0.,0.,0.,0.,0.,0.,0.,0.,0.,0.,0.,0.,0.,0.,0.,0.,0.,0.,0.,0.,0.
 ,0.,0.,0.,0.,0.,0.,0.,0.,0.,0.,0.,0.,0.,0.,0.,0.,0.,0.,0.,0.,0.,0.,0.,
 0.,0.,0.,0.,0.,0.,0.,0.,0.,0.,0.,0.,0.,0.,0.,0.,0.,0.,0.,0.,0.,0.,0.,0
 .,0.,0.,0.,0.,0.,0.,0.,0.,0.,0.,0.,0.,0.,0.,0.,0.,0.,0.,0.,0.,0.,0.,0.
 ,0.,0.,0.,0.,0.,0.,0.,0.,0.,0.,0.,0.,0.,0.,0.,0.,0.,0.,0.,0.,0.,0.,0.,
 0.,0.,0.,0.,0.,0.,0.,0.,0.,0.,0.,0.,0.,0.,0.,0.,0.,0.,0.,0.,0.,0.,0.,0
 .,0.,0.,0.,0.,0.,0.,0.,0.,0.,0.,0.,0.,0.,0.,0.,0.,0.,0.,0.,0.,0.,0.,0.
 ,0.,0.,0.,0.,0.,0.,0.,0.,0.,0.,0.,0.,0.,0.,0.,0.,0.,0.,0.,0.,0.,0.,0.,
 0.,0.,0.,0.,0.,0.,0.,0.,0.,0.,0.,0.,0.,0.,0.,0.,0.,0.,0.,0.,0.,0.,0.,0
 .,0.,0.,0.,0.,0.,0.,0.,0.,0.,0.,0.,0.,0.,0.,0.,0.,0.,0.,0.,0.,0.,0.,0.
 ,0.,0.,0.,0.,0.,0.,0.,0.,0.,0.,0.,0.,0.,0.,0.,0.,0.,0.,0.,0.,0.,0.,0.,
 0.,0.,0.,0.,0.,0.,0.,0.,0.,0.,0.,0.,0.,0.,0.,0.,0.,0.,0.,0.,0.,0.,0.,0
 .,0.,0.,0.,0.,0.,0.,0.,0.,0.,0.,0.,0.,0.,0.,0.,0.,0.,0.,0.,0.,0.,0.,0.
 ,0.,0.,0.,0.,0.,0.,0.,0.,0.,0.,0.,0.,0.,0.,0.,0.,0.,0.,0.,0.,0.,0.,0.,
 0.,0.,0.,0.,0.,0.,0.,0.,0.,0.,0.,0.,0.,0.,0.,0.,0.,0.,0.,0.,0.,0.,0.,0
 .,0.,0.,0.,0.,0.,0.,0.,0.,0.,0.,0.,0.,0.,0.,0.,0.,0.,0.,0.,0.,0.,0.,0.
 ,0.,0.,0.,0.,0.,0.,0.,0.,0.,0.,0.,0.,0.,0.,0.,0.,0.,0.,0.,0.,0.,0.,0.,
 0.,0.,0.,0.,0.,0.,0.,0.,0.,0.,0.,0.,0.,0.,0.,0.,0.,0.,0.,0.,0.,0.,0.,0
 .,0.,0.,0.,0.,0.,0.,0.,0.,0.,0.,0.,0.,0.,0.,0.,0.,0.,0.,0.,0.,0.,0.,0.
 ,0.,0.,0.,0.,0.,0.,0.,0.,0.,0.,0.,0.,0.,0.,0.,0.,0.,0.,0.,0.,0.,0.,0.,
 0.,0.,0.,0.,0.,0.,0.,0.,0.,0.,0.,0.,0.,0.,0.,0.,0.,0.,0.,0.,0.,0.,0.,0
 .,0.,0.,0.,0.,0.,0.,0.,0.,0.,0.,0.,0.,0.,0.,0.,0.,0.,0.,0.,0.,0.,0.,0.
 ,0.,0.,0.,0.,0.,0.,0.,0.,0.,0.,0.,0.,0.,0.,0.,0.,0.,0.,0.,0.,0.,0.,0.,
 0.,0.,0.,0.,0.,0.,0.,0.,0.,0.,0.,0.,0.,0.,0.,0.,0.,0.,0.,0.,0.,0.,0.,0
 .,0.,0.,0.,0.,0.,0.,0.,0.,0.,0.,0.,0.,0.,0.,0.,0.,0.,0.,0.,0.,0.,0.,0.
 ,0.,0.,0.,0.,0.,0.,0.,0.,0.,0.,0.,0.,0.,0.,0.,0.,0.,0.,0.,0.,0.,0.,0.,
 0.,0.,0.,0.,0.,0.,0.,0.,0.,0.,0.,0.,0.,0.,0.,0.,0.,0.,0.,0.,0.,0.,0.,0
 .,0.,0.,0.,-0.00084078,0.00046186,0.00043868,0.,0.,0.,-0.00213987,0.00
 099542,-0.00079567,0.,0.,0.,0.,0.,0.,0.00473694,0.00032928,-0.00035889
 ,-0.00090793,-0.00057749,-0.00036920,0.,0.,0.,-0.00135398,-0.00076079,
 0.00078513,0.,0.,0.,0.,0.,0.,0.,0.,0.,0.,0.,0.,0.,0.,0.,0.,0.,0.,0.,0.
 ,0.,0.,0.,0.,0.,0.,0.,0.,0.,0.,0.,0.,0.,0.,0.,0.,0.,0.,0.,0.,0.,0.,0.,
 0.,0.,0.,0.,0.,0.,0.,0.,0.,0.,0.,0.00000038,0.00008160,0.00004903,-0.0
 0011620,0.00004787,-0.00006705,0.00023290,-0.00053003,-0.00023947,0.00
 033940,0.00084944,0.00036230,-0.00010462,-0.00034748,0.00064067,-0.013
 18334,-0.00971626,-0.00228101,-0.03324481,-0.00641163,0.00026829,-0.00
 070059,-0.00032898,0.01045193,0.00001191,-0.00001288,0.00004669,0.0000
 2386,-0.00003012,-0.00001759,0.00005258,-0.00002198,0.00004014,-0.0000
 3731,0.00018119,-0.00002725,0.00000965,-0.00002058,-0.00002013,-0.0002
 9583,0.00112168,0.00088031,0.00018129,-0.00025926,-0.00011677,0.002155
 94,0.00030832,0.00034924,-0.00607694,-0.00352165,0.00462626,-0.0108444
 4,-0.01743668,0.01563068,0.,0.,0.,0.,0.,0.,0.,0.,0.,0.,0.,0.,0.,0.,0.,
 0.,0.,0.,0.,0.,0.,0.,0.,0.,0.,0.,0.,0.,0.,0.,0.,0.,0.,0.,0.,0.,0.,0.,0
 .,0.,0.,0.,0.,0.,0.,0.,0.,0.,0.,0.,0.,0.,0.,0.,0.,0.,0.,0.,0.,0.,0.,0.
 ,0.,0.,0.,0.,0.,0.,0.,0.,0.,0.,0.,0.,0.,0.,0.,0.,0.,0.,0.,0.,0.,0.,0.,
 0.,0.,0.05959878,0.,0.,0.,0.,0.,0.,-0.00057662,0.00042823,0.00025906,0
 .,0.,0.,-0.00113528,0.00086119,-0.00070329,0.,0.,0.,0.,0.,0.,0.0038981
 7,-0.00017576,0.00009219,-0.00076662,-0.00033447,-0.00028883,0.,0.,0.,
 -0.00117045,-0.00056883,0.00064428,0.,0.,0.,0.,0.,0.,0.,0.,0.,0.,0.,0.
 ,0.,0.,0.,0.,0.,0.,0.,0.,0.,0.,0.,0.,0.,0.,0.,0.,0.,0.,0.,0.,0.,0.,0.,
 0.,0.,0.,0.,0.,0.,0.,0.,0.,0.,0.,0.,0.,0.,0.,0.,0.,0.,0.,-0.00001380,0
 .00004924,-0.00000886,-0.00004110,0.00006300,0.00000148,-0.00003369,-0
 .00018739,0.00007212,0.00028476,0.00114385,-0.00091458,-0.00017170,-0.
 00196995,0.00051256,-0.00852252,-0.00896435,-0.00117892,-0.00713515,-0
 .02992998,0.00024243,-0.00231978,0.00182936,0.00854515,0.00001060,-0.0
 0001896,0.00001236,0.00001965,-0.00002807,-0.00000821,0.00002656,-0.00
 002289,0.00002346,-0.00000604,0.00015413,-0.00001529,0.00003242,-0.000
 03807,-0.00002210,0.00125124,0.00172813,-0.00123035,0.00026514,0.00003
 526,-0.00013383,0.00111891,0.00022322,-0.00011284,-0.02031955,-0.00749
 647,0.01411534,-0.00196230,-0.00206030,0.00230166,0.,0.,0.,0.,0.,0.,0.
 ,0.,0.,0.,0.,0.,0.,0.,0.,0.,0.,0.,0.,0.,0.,0.,0.,0.,0.,0.,0.,0.,0.,0.,
 0.,0.,0.,0.,0.,0.,0.,0.,0.,0.,0.,0.,0.,0.,0.,0.,0.,0.,0.,0.,0.,0.,0.,0
 .,0.,0.,0.,0.,0.,0.,0.,0.,0.,0.,0.,0.,0.,0.,0.,0.,0.,0.,0.,0.,0.,0.,0.
 ,0.,0.,0.,0.,0.,0.,0.,0.,0.,0.,0.03556120,0.04521279,0.,0.,0.,0.,0.,0.
 ,0.00094132,-0.00043219,-0.00030463,0.,0.,0.,0.00126829,-0.00073594,0.
 00114434,0.,0.,0.,0.,0.,0.,-0.00500809,-0.00017731,-0.00074959,0.00075
 007,0.00043894,0.00047488,0.,0.,0.,0.00156148,0.00082979,-0.00078226,0
 .,0.,0.,0.,0.,0.,0.,0.,0.,0.,0.,0.,0.,0.,0.,0.,0.,0.,0.,0.,0.,0.,0.,0.
 ,0.,0.,0.,0.,0.,0.,0.,0.,0.,0.,0.,0.,0.,0.,0.,0.,0.,0.,0.,0.,0.,0.,0.,
 0.,0.,0.,0.,0.,0.,0.,0.00000802,-0.00008393,-0.00006486,0.00008524,-0.
 00006749,0.00007522,-0.00037038,0.00076339,0.00042575,-0.00015667,-0.0
 0059320,-0.00061675,0.00059923,-0.00147568,-0.00025324,0.02029387,0.01
 751630,0.00331790,0.00265921,0.00148914,-0.02321923,0.00517992,0.00231
 097,-0.01269487,-0.00001122,0.00001605,-0.00005409,-0.00000955,0.00003
 124,0.00001462,-0.00003591,0.00004004,-0.00001577,0.00002085,-0.000192
 05,0.00004383,0.00003916,0.00000275,-0.00000011,0.00109590,-0.00048821
 ,-0.00203828,0.00013859,0.00048234,-0.00026495,-0.00113155,-0.00015852
 ,0.00085246,0.00342232,0.00212657,-0.00219488,0.00120482,0.00070530,-0
 .00071632,0.,0.,0.,0.,0.,0.,0.,0.,0.,0.,0.,0.,0.,0.,0.,0.,0.,0.,0.,0.,
 0.,0.,0.,0.,0.,0.,0.,0.,0.,0.,0.,0.,0.,0.,0.,0.,0.,0.,0.,0.,0.,0.,0.,0
 .,0.,0.,0.,0.,0.,0.,0.,0.,0.,0.,0.,0.,0.,0.,0.,0.,0.,0.,0.,0.,0.,0.,0.
 ,0.,0.,0.,0.,0.,0.,0.,0.,0.,0.,0.,0.,0.,0.,0.,0.,0.,0.,0.,0.,-0.030436
 16,-0.02223326,0.03759511\\0.,0.,0.,0.,0.,0.,0.,0.,0.,0.,0.,0.,0.,0.,0
 .,0.,0.,0.,0.,0.,0.,0.,0.,0.,0.,0.,0.,0.,0.,0.,0.,0.,0.,0.,0.,0.,0.,0.
 ,0.,0.,0.,0.,0.,0.,0.,0.,0.,0.,0.,0.,0.,0.,0.,0.,0.,0.,0.,0.,0.,0.,0.,
 0.,0.,0.,0.,0.,0.,0.,0.,0.,0.,0.,0.,0.,0.,0.,0.,0.,0.,0.,0.,0.,0.,0.,0
 .,0.,0.,-0.00000003,-0.00000007,0.00000005,-0.00000002,-0.00000005,0.0
 0000005,-0.00000001,-0.00000003,0.00000005,-0.00000001,-0.00000002,0.0
 0000004,0.,0.,0.00000003,0.,0.,0.00000001,0.,0.00000003,0.00000001,0.,
 0.,0.,-0.00000003,-0.00000009,0.00000005,-0.00000003,-0.00000007,0.000
 00004,-0.00000002,-0.00000006,0.00000006,0.,-0.00000002,0.00000006,-0.
 00000001,-0.00000003,0.00000003,0.,0.,0.00000004,0.,0.,0.00000003,0.,0
 .,0.00000001,0.,0.00000003,0.,0.,0.00000003,0.00000001,0.,0.,0.,0.,0.,
 0.,0.,0.,0.,0.,0.,0.,0.,0.,0.,0.,0.,0.,0.,0.,0.,0.,0.,0.,0.,0.,0.,0.,0
 .,0.,0.,0.,0.,0.,0.,0.,0.,0.,0.,0.,0.,0.,0.,0.,0.,0.,0.,0.,0.,0.,0.,0.
 ,0.,0.,0.,0.,0.,0.,0.,0.,0.,0.,0.,0.,0.,0.,0.,0.,0.,0.,0.,0.,0.,0.,0.,
 0.,0.,0.,0.,0.,0.,0.,0.,0.,0.,0.,0.,0.,0.00000004,0.00000003\\\@


 PERICLES, SOPHOCLES,
 PELOPONESIAN WAR,
 FRENCH VERBS, LATIN VERBS
 H2SO4.
 Job cpu time:       0 days  0 hours  4 minutes 33.0 seconds.
 Elapsed time:       0 days  0 hours 47 minutes 15.5 seconds.
 File lengths (MBytes):  RWF=   4460 Int=      0 D2E=      0 Chk=     59 Scr=      1
 Normal termination of Gaussian 16 at Sun Jun 25 14:51:06 2023.
