 Entering Gaussian System, Link 0=g16
 Input=paddle_new_AGC_opt_freq_6_31Gdp.com
 Output=paddle_new_AGC_opt_freq_6_31Gdp.log
 Initial command:
 /opt/ohpc/pub/apps/gaussian/avx2/g16/l1.exe "/scratch/g16-tmp/Gau-1571081.inp" -scrdir="/scratch/g16-tmp/"
 Entering Link 1 = /opt/ohpc/pub/apps/gaussian/avx2/g16/l1.exe PID=   1571082.
  
 Copyright (c) 1988-2017, Gaussian, Inc.  All Rights Reserved.
  
 This is part of the Gaussian(R) 16 program.  It is based on
 the Gaussian(R) 09 system (copyright 2009, Gaussian, Inc.),
 the Gaussian(R) 03 system (copyright 2003, Gaussian, Inc.),
 the Gaussian(R) 98 system (copyright 1998, Gaussian, Inc.),
 the Gaussian(R) 94 system (copyright 1995, Gaussian, Inc.),
 the Gaussian 92(TM) system (copyright 1992, Gaussian, Inc.),
 the Gaussian 90(TM) system (copyright 1990, Gaussian, Inc.),
 the Gaussian 88(TM) system (copyright 1988, Gaussian, Inc.),
 the Gaussian 86(TM) system (copyright 1986, Carnegie Mellon
 University), and the Gaussian 82(TM) system (copyright 1983,
 Carnegie Mellon University). Gaussian is a federally registered
 trademark of Gaussian, Inc.
  
 This software contains proprietary and confidential information,
 including trade secrets, belonging to Gaussian, Inc.
  
 This software is provided under written license and may be
 used, copied, transmitted, or stored only in accord with that
 written license.
  
 The following legend is applicable only to US Government
 contracts under FAR:
  
                    RESTRICTED RIGHTS LEGEND
  
 Use, reproduction and disclosure by the US Government is
 subject to restrictions as set forth in subparagraphs (a)
 and (c) of the Commercial Computer Software - Restricted
 Rights clause in FAR 52.227-19.
  
 Gaussian, Inc.
 340 Quinnipiac St., Bldg. 40, Wallingford CT 06492
  
  
 ---------------------------------------------------------------
 Warning -- This program may not be used in any manner that
 competes with the business of Gaussian, Inc. or will provide
 assistance to any competitor of Gaussian, Inc.  The licensee
 of this program is prohibited from giving any competitor of
 Gaussian, Inc. access to this program.  By using this program,
 the user acknowledges that Gaussian, Inc. is engaged in the
 business of creating and licensing software in the field of
 computational chemistry and represents and warrants to the
 licensee that it is not a competitor of Gaussian, Inc. and that
 it will not use this program in any manner prohibited above.
 ---------------------------------------------------------------
  

 Cite this work as:
 Gaussian 16, Revision B.01,
 M. J. Frisch, G. W. Trucks, H. B. Schlegel, G. E. Scuseria, 
 M. A. Robb, J. R. Cheeseman, G. Scalmani, V. Barone, 
 G. A. Petersson, H. Nakatsuji, X. Li, M. Caricato, A. V. Marenich, 
 J. Bloino, B. G. Janesko, R. Gomperts, B. Mennucci, H. P. Hratchian, 
 J. V. Ortiz, A. F. Izmaylov, J. L. Sonnenberg, D. Williams-Young, 
 F. Ding, F. Lipparini, F. Egidi, J. Goings, B. Peng, A. Petrone, 
 T. Henderson, D. Ranasinghe, V. G. Zakrzewski, J. Gao, N. Rega, 
 G. Zheng, W. Liang, M. Hada, M. Ehara, K. Toyota, R. Fukuda, 
 J. Hasegawa, M. Ishida, T. Nakajima, Y. Honda, O. Kitao, H. Nakai, 
 T. Vreven, K. Throssell, J. A. Montgomery, Jr., J. E. Peralta, 
 F. Ogliaro, M. J. Bearpark, J. J. Heyd, E. N. Brothers, K. N. Kudin, 
 V. N. Staroverov, T. A. Keith, R. Kobayashi, J. Normand, 
 K. Raghavachari, A. P. Rendell, J. C. Burant, S. S. Iyengar, 
 J. Tomasi, M. Cossi, J. M. Millam, M. Klene, C. Adamo, R. Cammi, 
 J. W. Ochterski, R. L. Martin, K. Morokuma, O. Farkas, 
 J. B. Foresman, and D. J. Fox, Gaussian, Inc., Wallingford CT, 2016.
 
 ******************************************
 Gaussian 16:  ES64L-G16RevB.01 20-Dec-2017
                31-Jul-2023 
 ******************************************
 %nprocshared=64
 Will use up to   64 processors via shared memory.
 %mem=64GB
 %chk=paddle_new_AGC_opt_freq_6_31Gdp.chk
 ----------------------------------------------------------------------
 # opt=(calcall,tight,cartesian) freq b3lyp/gen nosymm scf=(qc,maxcycle
 =1024) pseudo=read
 ----------------------------------------------------------------------
 1/7=10,10=4,18=10,26=3,38=1/1,3;
 2/12=2,15=1,17=6,18=5,29=2,40=1/2;
 3/5=7,11=2,16=1,17=8,25=1,30=1,71=2,74=-5,140=1/1,2,3;
 4//1;
 5/5=2,7=1024,8=3,38=5/8;
 8/6=4,10=90,11=11/1;
 11/6=1,8=1,9=11,15=111,16=1,31=1/1,2,10;
 10/6=1,31=1/2;
 6/7=2,8=2,9=2,10=2,18=1,28=1/1;
 7/7=1,10=1,25=1,30=1/1,2,3,16;
 1/7=10,10=4,18=10,26=3/3(3);
 2/15=1,29=1/2;
 7/7=1,8=1,9=1,25=1,30=1,44=-1/16;
 99/12=1/99;
 2/15=1,29=1/2;
 3/5=7,6=1,11=2,16=1,17=8,25=1,30=1,71=2,74=-5,82=7,140=1/1,2,3;
 4/5=5,16=3,69=1/1;
 5/5=2,7=1024,8=3,38=5/8;
 8/6=4,10=90,11=11/1;
 11/6=1,8=1,9=11,15=111,16=1,31=1/1,2,10;
 10/6=1,31=1/2;
 7/7=1,10=1,25=1,30=1/1,2,3,16;
 1/7=10,10=4,18=10,26=3/3(-8);
 2/15=1,29=1/2;
 6/7=2,8=2,9=2,10=2,18=1,19=2,28=1/1;
 7/7=1,8=1,9=1,25=1,30=1,44=-1/16;
 99/12=1/99;
 -------------------------------
 paddle_new_AGC_opt_freq_6_31Gdp
 -------------------------------
 Symbolic Z-matrix:
 Charge =  0 Multiplicity = 1
 Zn                   -1   -4.69449  -2.52891   2.32632 
 O                    -1   -4.60002  -0.93173   3.63136 
 O                    0    -2.33276  -0.89784   3.51334 
 O                    -1   -3.7714   -1.27973   0.82823 
 O                    0    -1.49877  -1.12437   0.68749 
 C                    -1   -3.46123  -0.46882   3.94274 
 C                    -1   -2.70354  -0.84264   0.32124 
 Zn                   0    -1.42164  -2.40363   2.25914 
 O                    0    -2.27426  -3.95372   0.99715 
 O                    -1   -4.53935  -4.11556   1.01425 
 O                    0    -1.3153   -3.66585   3.78733 
 O                    -1   -3.59321  -3.69443   3.77059 
 C                    -1   -3.3849   -4.48478   0.64137 
 C                    -1   -2.46758  -4.0416    4.21874 
 H                    -1   -3.45541   0.38383   4.64232 
 H                    -1   -2.79074  -0.14615  -0.52756 
 H                    -1   -3.34703  -5.33554  -0.0595 
 H                    -1   -2.45197  -4.74051   5.06989 
 C                    -1   -7.53384  -1.75151   3.14439 
 C                    -1   -8.92519  -1.77977   3.20973 
 C                    -1   -9.61549  -2.73787   2.46521 
 C                    -1   -8.88946  -3.63544   1.68034 
 C                    -1   -7.49932  -3.5449    1.66652 
 N                    -1   -6.83449  -2.61908   2.38606 
 H                    -1   -10.70019  -2.78423   2.49611 
 H                    -1   -6.94295  -1.03037   3.70008 
 H                    -1   -9.44925  -1.06304   3.8329 
 H                    -1   -9.38507  -4.39575   1.08621 
 H                    -1   -6.88162  -4.21449   1.07654 
 C                    0     1.25054   5.96817   0.36908 
 C                    0     1.40836   4.72384   0.83095 
 C                    0     1.7817    3.55077  -0.02237 
 O                    0     0.82513   2.47761   0.26089 
 C                    0     1.02905   1.25967  -0.48187 
 C                    0     2.12959   0.37474   0.10121 
 C                    0     2.42195  -0.89027  -0.74282 
 O                    0     1.65585  -0.20363   1.39355 
 H                    0     1.00503   6.79487   1.02788 
 H                    0     1.35969   6.20928  -0.6858 
 H                    0     1.28048   4.49935   1.88764 
 H                    0     2.80378   3.21312   0.21808 
 H                    0     1.75313   3.80783  -1.09203 
 H                    0     1.27343   1.47772  -1.53544 
 H                    0     0.08023   0.71723  -0.43609 
 H                    0     3.03116   0.93754   0.34161 
 H                    0     3.48007  -1.15255  -0.78077 
 H                    0     2.00348  -0.84866  -1.7484 
 C                    0     1.29494  -1.50918   1.20315 
 O                    0     0.69254  -2.19529   2.02413 
 O                    0     1.71387  -1.96963  -0.01885 
 

 GradGradGradGradGradGradGradGradGradGradGradGradGradGradGradGradGradGrad
 Berny optimization.
 Initialization pass.
 No Z-matrix variables, so optimization will use Cartesian coordinates.
 Trust Radius=3.00D-01 FncErr=1.00D-07 GrdErr=1.00D-06 EigMax=2.50D+02 EigMin=1.00D-04
 Number of steps in this run=    160 maximum allowed number of steps=    300.
 GradGradGradGradGradGradGradGradGradGradGradGradGradGradGradGradGradGrad

 ---------------------------------------------------------------------------------------------------
                            Z-MATRIX (ANGSTROMS AND DEGREES)
   CD    Cent   Atom    N1       Length/X        N2       Alpha/Y        N3        Beta/Z          J
 ---------------------------------------------------------------------------------------------------
      1      1  Zn      -1  -4.694489         -2.528905          2.326317
      2      2  O       -1  -4.600022         -0.931734          3.631360
      3      3  O        0  -2.332758         -0.897839          3.513343
      4      4  O       -1  -3.771400         -1.279734          0.828231
      5      5  O        0  -1.498772         -1.124372          0.687485
      6      6  C       -1  -3.461226         -0.468815          3.942742
      7      7  C       -1  -2.703539         -0.842639          0.321243
      8      8  Zn       0  -1.421642         -2.403627          2.259141
      9      9  O        0  -2.274258         -3.953721          0.997154
     10     10  O       -1  -4.539354         -4.115561          1.014246
     11     11  O        0  -1.315299         -3.665853          3.787331
     12     12  O       -1  -3.593209         -3.694425          3.770586
     13     13  C       -1  -3.384903         -4.484776          0.641370
     14     14  C       -1  -2.467582         -4.041605          4.218740
     15     15  H       -1  -3.455408          0.383834          4.642316
     16     16  H       -1  -2.790739         -0.146153         -0.527563
     17     17  H       -1  -3.347035         -5.335536         -0.059501
     18     18  H       -1  -2.451967         -4.740511          5.069891
     19     19  C       -1  -7.533844         -1.751514          3.144391
     20     20  C       -1  -8.925190         -1.779770          3.209727
     21     21  C       -1  -9.615492         -2.737870          2.465207
     22     22  C       -1  -8.889458         -3.635442          1.680343
     23     23  C       -1  -7.499316         -3.544901          1.666524
     24     24  N       -1  -6.834486         -2.619084          2.386057
     25     25  H       -1 -10.700185         -2.784227          2.496111
     26     26  H       -1  -6.942948         -1.030371          3.700081
     27     27  H       -1  -9.449248         -1.063042          3.832903
     28     28  H       -1  -9.385065         -4.395750          1.086214
     29     29  H       -1  -6.881618         -4.214494          1.076539
     30     30  C        0   1.250543          5.968169          0.369075
     31     31  C        0   1.408358          4.723838          0.830946
     32     32  C        0   1.781701          3.550772         -0.022369
     33     33  O        0   0.825126          2.477609          0.260888
     34     34  C        0   1.029049          1.259673         -0.481865
     35     35  C        0   2.129591          0.374742          0.101209
     36     36  C        0   2.421948         -0.890267         -0.742815
     37     37  O        0   1.655854         -0.203625          1.393547
     38     38  H        0   1.005035          6.794866          1.027878
     39     39  H        0   1.359689          6.209276         -0.685803
     40     40  H        0   1.280477          4.499348          1.887642
     41     41  H        0   2.803780          3.213122          0.218075
     42     42  H        0   1.753133          3.807831         -1.092034
     43     43  H        0   1.273427          1.477715         -1.535436
     44     44  H        0   0.080228          0.717227         -0.436089
     45     45  H        0   3.031162          0.937537          0.341607
     46     46  H        0   3.480068         -1.152553         -0.780768
     47     47  H        0   2.003479         -0.848655         -1.748396
     48     48  C        0   1.294943         -1.509182          1.203145
     49     49  O        0   0.692535         -2.195291          2.024132
     50     50  O        0   1.713874         -1.969632         -0.018854
 ---------------------------------------------------------------------------------------------------
                         Z-Matrix orientation:                         
 ---------------------------------------------------------------------
 Center     Atomic      Atomic             Coordinates (Angstroms)
 Number     Number       Type             X           Y           Z
 ---------------------------------------------------------------------
      1         30           0       -4.694489   -2.528905    2.326317
      2          8           0       -4.600022   -0.931734    3.631360
      3          8           0       -2.332758   -0.897839    3.513343
      4          8           0       -3.771400   -1.279734    0.828231
      5          8           0       -1.498772   -1.124372    0.687485
      6          6           0       -3.461226   -0.468815    3.942742
      7          6           0       -2.703539   -0.842639    0.321243
      8         30           0       -1.421642   -2.403627    2.259141
      9          8           0       -2.274258   -3.953721    0.997154
     10          8           0       -4.539354   -4.115561    1.014246
     11          8           0       -1.315299   -3.665853    3.787331
     12          8           0       -3.593209   -3.694425    3.770586
     13          6           0       -3.384903   -4.484776    0.641370
     14          6           0       -2.467582   -4.041605    4.218740
     15          1           0       -3.455408    0.383834    4.642316
     16          1           0       -2.790739   -0.146153   -0.527563
     17          1           0       -3.347035   -5.335536   -0.059501
     18          1           0       -2.451967   -4.740511    5.069891
     19          6           0       -7.533844   -1.751514    3.144391
     20          6           0       -8.925190   -1.779770    3.209727
     21          6           0       -9.615492   -2.737870    2.465207
     22          6           0       -8.889458   -3.635442    1.680343
     23          6           0       -7.499316   -3.544901    1.666524
     24          7           0       -6.834486   -2.619084    2.386057
     25          1           0      -10.700185   -2.784227    2.496111
     26          1           0       -6.942948   -1.030371    3.700081
     27          1           0       -9.449248   -1.063042    3.832903
     28          1           0       -9.385065   -4.395750    1.086214
     29          1           0       -6.881618   -4.214494    1.076539
     30          6           0        1.250543    5.968169    0.369075
     31          6           0        1.408358    4.723838    0.830946
     32          6           0        1.781701    3.550772   -0.022369
     33          8           0        0.825126    2.477609    0.260888
     34          6           0        1.029049    1.259673   -0.481865
     35          6           0        2.129591    0.374742    0.101209
     36          6           0        2.421948   -0.890267   -0.742815
     37          8           0        1.655854   -0.203625    1.393547
     38          1           0        1.005035    6.794866    1.027878
     39          1           0        1.359689    6.209276   -0.685803
     40          1           0        1.280477    4.499348    1.887642
     41          1           0        2.803780    3.213122    0.218075
     42          1           0        1.753133    3.807831   -1.092034
     43          1           0        1.273427    1.477715   -1.535436
     44          1           0        0.080228    0.717227   -0.436089
     45          1           0        3.031162    0.937537    0.341607
     46          1           0        3.480068   -1.152553   -0.780768
     47          1           0        2.003479   -0.848655   -1.748396
     48          6           0        1.294943   -1.509182    1.203145
     49          8           0        0.692535   -2.195291    2.024132
     50          8           0        1.713874   -1.969632   -0.018854
 ---------------------------------------------------------------------
                    Distance matrix (angstroms):
                    1          2          3          4          5
     1  Zn   0.000000
     2  O    2.064707   0.000000
     3  O    3.105991   2.270586   0.000000
     4  O    2.157958   2.943680   3.070075   0.000000
     5  O    3.856305   4.280334   2.955050   2.282276   0.000000
     6  C    2.894432   1.268112   1.281361   3.233261   3.857159
     7  C    3.290547   3.815948   3.214036   1.260324   1.290337
     8  Zn   3.275933   3.761855   2.161146   2.971868   2.027941
     9  O    3.107136   4.634720   3.958920   3.069230   2.949998
    10  O    2.064721   4.121859   4.633388   2.943853   4.277747
    11  O    3.853069   4.276580   2.961789   4.525734   4.012709
    12  O    2.158047   2.943725   3.078279   3.810504   4.527400
    13  C    2.894735   4.800069   4.713953   3.233665   3.853820
    14  C    3.290690   3.816230   3.224752   4.563269   4.681731
    15  H    3.922145   2.015662   2.043920   4.173075   4.663025
    16  H    4.176889   4.602965   4.135662   2.021108   2.025446
    17  H    3.922364   5.880978   5.786806   4.173450   4.659181
    18  H    4.176997   4.603292   4.147672   5.631124   5.761122
    19  C    3.055408   3.084881   5.283577   4.443327   6.546128
    20  C    4.386393   4.427642   6.658089   5.699396   7.870383
    21  C    4.927396   5.456829   7.584360   6.241736   8.464326
    22  C    4.386282   5.432841   7.337893   5.698243   7.868512
    23  C    3.055263   4.369797   6.091880   4.441967   6.544005
    24  N    2.142729   3.064435   4.949648   3.688248   5.795615
    25  H    6.013518   6.475532   8.637538   7.283775   9.523248
    26  H    3.031237   2.346008   4.615873   4.285840   6.222831
    27  H    5.198681   4.855188   7.125577   6.427516   8.550291
    28  H    5.198506   6.432248   8.237801   6.425679   8.547193
    29  H    3.030955   4.744397   6.134357   4.283448   6.218943
    30  C   10.553410   9.616667   8.358740   8.829656   7.613426
    31  C    9.595997   8.713693   7.265979   7.929236   6.532499
    32  C    9.188027   8.612142   7.015709   7.409065   5.755203
    33  O    7.732873   7.239885   5.651933   5.963854   4.307755
    34  C    7.416070   7.308032   5.649628   5.586524   3.666187
    35  C    7.742760   7.710806   5.759746   6.171511   3.969393
    36  C    7.921388   8.273040   6.381392   6.401362   4.180025
    37  O    6.826701   6.683856   4.569956   5.561715   3.361244
    38  H   11.004691   9.894197   8.746205   9.383675   8.312596
    39  H   11.049061  10.254271   9.043123   9.203567   7.989938
    40  H    9.235204   8.192525   6.695371   7.748652   6.386770
    41  H    9.676755   9.145853   7.358180   7.986929   6.127492
    42  H    9.664946   9.226945   7.749021   7.751851   6.169943
    43  H    8.159789   8.185269   6.643643   6.216167   4.404239
    44  H    6.400483   6.416226   4.901934   4.519004   2.673415
    45  H    8.697182   8.517724   6.496164   7.171328   4.989128
    46  H    8.852779   9.208881   7.231405   7.428919   5.190897
    47  H    8.018061   8.517917   6.818451   6.338301   4.274962
    48  C    6.178563   6.401585   4.344073   5.085375   2.866850
    49  O    5.405797   5.673704   3.612967   4.711172   2.781244
    50  O    6.846877   7.366585   5.477261   5.593008   3.396244
                    6          7          8          9         10
     6  C    0.000000
     7  C    3.718748   0.000000
     8  Zn   3.276875   2.799177   0.000000
     9  O    4.714865   3.212471   2.173098   0.000000
    10  O    4.799709   3.816083   3.768370   2.270935   0.000000
    11  O    3.853597   4.680974   1.984915   2.964382   4.276303
    12  O    3.232896   4.563131   2.943863   3.082011   2.944479
    13  C    5.199310   3.719126   3.286755   1.281458   1.268114
    14  C    3.718646   5.047726   2.759890   3.228578   3.816607
    15  H    1.102927   4.554252   4.193527   5.787634   5.880679
    16  H    4.531809   1.101439   3.838793   4.133895   4.603372
    17  H    6.302060   4.554687   4.204679   2.043718   2.015663
    18  H    4.531717   6.148687   3.797751   4.151844   4.603912
    19  C    4.343835   5.668162   6.210309   6.092913   4.369577
    20  C    5.666641   6.923185   7.589206   7.338695   5.432459
    21  C    6.723594   7.480881   8.203253   7.584668   5.456235
    22  C    6.679197   6.921885   7.590827   6.657997   4.426918
    23  C    5.563240   5.666699   6.212232   5.283599   3.084233
    24  N    4.292529   4.948125   5.418617   4.950352   3.064138
    25  H    7.736692   8.511531   9.289369   8.637756   6.474891
    26  H    3.535056   5.424424   5.869153   6.135834   4.744404
    27  H    6.018436   7.608214   8.289533   8.238809   6.431933
    28  H    7.659794   7.606088   8.292190   7.125089   4.854338
    29  H    5.826175   5.421828   5.872744   4.615417   2.345180
    30  C    8.741088   7.875542   8.988876  10.548109  11.645633
    31  C    7.769155   6.939248   7.800602   9.428113  10.655696
    32  C    7.705029   6.287886   7.135935   8.591138   9.990144
    33  O    6.372619   4.845531   5.733014   7.177066   8.533176
    34  C    6.536619   4.358545   5.190257   6.346559   7.882804
    35  C    6.835656   4.988945   4.998726   6.239567   8.091433
    36  C    7.532848   5.234989   5.106386   5.870826   7.870801
    37  O    5.723044   4.534587   3.880753   5.446662   7.336737
    38  H    9.011381   8.519644   9.592551  11.237741  12.238376
    39  H    9.447833   8.200821   9.517909  10.923572  12.012124
    40  H    7.168670   6.845642   7.422299   9.213223  10.433116
    41  H    8.165789   6.840351   7.319017   8.817997  10.405052
    42  H    8.415950   6.594403   7.738978   8.990343  10.334987
    43  H    7.497756   4.964631   6.060283   6.964236   8.460144
    44  H    5.755237   3.279648   4.388577   5.423610   6.841042
    45  H    7.556262   6.004685   5.887935   7.245801   9.126826
    46  H    8.423812   6.288678   5.901948   6.642275   8.735710
    47  H    7.899135   5.141932   5.496339   5.956384   7.817514
    48  C    5.586493   4.148480   3.048769   4.330981   6.392802
    49  O    4.890349   4.032718   2.137376   3.598419   5.663918
    50  O    6.687926   4.571577   3.899881   4.568816   6.691425
                   11         12         13         14         15
    11  O    0.000000
    12  O    2.278151   0.000000
    13  C    3.853695   3.234198   0.000000
    14  C    1.286491   1.260322   3.719604   0.000000
    15  H    4.659510   4.172661   6.302055   4.554089   0.000000
    16  H    5.760514   5.631010   4.532448   6.148688   5.239305
    17  H    4.659819   4.174136   1.102926   4.555331   7.404730
    18  H    2.022836   2.021119   4.532943   1.101441   5.239144
    19  C    6.538224   4.437976   5.563232   5.662663   4.841191
    20  C    7.861385   5.693021   6.678944   6.916264   6.054090
    21  C    8.455907   6.235937   6.722968   7.474438   7.240958
    22  C    7.861820   5.694106   5.665771   6.917291   7.379483
    23  C    6.538694   4.439269   4.343121   5.663821   6.375225
    24  N    5.789708   3.684991   4.292361   4.944911   5.052365
    25  H    9.514231   7.277490   7.735973   8.504364   8.193266
    26  H    6.214806   4.280526   5.826518   5.418989   3.879525
    27  H    8.540365   6.420378   7.659662   7.600287   6.218900
    28  H    8.541072   6.422095   6.017288   7.601954   8.405422
    29  H    6.215570   4.282756   3.534040   5.420981   6.752651
    30  C   10.539564  11.331281  11.437900  11.350769   8.461168
    31  C    9.302980  10.223713  10.383153  10.165287   7.551053
    32  C    8.728396   9.786166   9.576240   9.679236   7.695199
    33  O    7.399956   8.362635   8.145177   8.307025   6.473313
    34  C    6.926962   7.999481   7.330984   7.900991   6.865470
    35  C    6.463836   7.922934   7.369962   7.588951   7.198191
    36  C    6.495623   8.025971   6.968212   7.645617   8.072564
    37  O    5.152182   6.737111   6.656069   6.301947   6.084785
    38  H   11.064591  11.776736  12.109966  11.818197   8.605873
    39  H   11.166139  11.936243  11.774349  11.990959   9.247150
    40  H    8.775955   9.717829  10.199679   9.614044   6.852320
    41  H    8.776485  10.062604   9.886183   9.819554   8.170448
    42  H    9.438190  10.416923   9.908150  10.374604   8.469677
    43  H    7.841533   8.865046   7.873362   8.807303   7.856403
    44  H    6.244691   7.117087   6.342625   7.127780   6.196940
    45  H    7.208047   8.780391   8.405785   8.370197   7.802453
    46  H    7.083767   8.786762   7.762346   8.289526   8.937066
    47  H    7.042384   8.359455   6.925823   8.111229   8.494685
    48  C    4.259414   5.938103   5.574111   5.446428   6.162568
    49  O    3.050053   4.864679   4.876400   4.267496   5.541859
    50  O    5.151708   6.745361   5.723580   6.303558   7.347570
                   16         17         18         19         20
    16  H    0.000000
    17  H    5.240061   0.000000
    18  H    7.249440   5.240788   0.000000
    19  C    6.209467   6.374912   6.202187   0.000000
    20  C    7.366650   7.378830   7.357229   1.393166   0.000000
    21  C    7.889925   7.239860   7.881056   2.401551   1.395988
    22  C    7.365077   6.052754   7.358771   2.744141   2.404955
    23  C    6.207753   4.840142   6.203880   2.324117   2.744135
    24  N    5.563853   5.051948   5.559666   1.347906   2.398734
    25  H    8.869125   8.192017   8.859147   3.393004   2.160738
    26  H    5.991298   6.752740   5.984182   1.085356   2.175162
    27  H    8.011872   8.404881   8.000991   2.148677   1.084751
    28  H    8.009275   6.217207   8.003524   3.828197   3.400609
    29  H    5.988308   3.878221   5.987100   3.281415   3.828127
    30  C    7.383824  12.210452  12.267114  12.019207  13.101351
    31  C    6.572273  11.162332  11.065472  11.280301  12.439362
    32  C    5.901668  10.260204  10.611335  11.176850  12.389457
    33  O    4.536547   8.863115   9.271845   9.801655  11.040362
    34  C    4.070530   7.926240   8.884913   9.774462  11.043230
    35  C    4.987618   7.913693   8.476101  10.352000  11.683877
    36  C    5.269928   7.314950   8.506878  10.722402  12.048707
    37  O    4.844188   7.312780   7.139540   9.482192  10.850863
    38  H    8.062570  12.933273  12.702506  12.265101  13.300159
    39  H    7.592270  12.483116  12.944287  12.535529  13.593335
    40  H    6.632397  11.042200  10.461015  10.878646  12.055325
    41  H    6.568055  10.535138  10.696881  11.835430  13.093803
    42  H    6.049743  10.520409  11.345763  11.623319  12.796602
    43  H    4.491125   8.363459   9.806898  10.483164  11.710660
    44  H    2.999374   6.965909   8.155656   8.768615  10.031177
    45  H    5.985346   8.955095   9.201174  11.256374  12.592229
    46  H    6.356097   8.039086   9.071532  11.707770  13.046374
    47  H    4.996846   7.184182   9.026992  10.757093  12.036850
    48  C    4.641766   6.146806   6.279534   9.042933  10.418767
    49  O    4.779468   5.524563   5.063861   8.314158   9.699429
    50  O    4.886246   6.078138   7.136339   9.776195  11.119778
                   21         22         23         24         25
    21  C    0.000000
    22  C    1.395984   0.000000
    23  C    2.401540   1.393156   0.000000
    24  N    2.784667   2.398734   1.347911   0.000000
    25  H    1.086123   2.160735   3.392993   3.870790   0.000000
    26  H    3.403375   3.828138   3.281427   2.064566   4.317683
    27  H    2.168704   3.400606   3.828192   3.369215   2.512834
    28  H    2.168706   1.084751   2.148663   3.369212   2.512838
    29  H    3.403364   2.175156   1.085352   2.064556   4.317673
    30  C   14.080469  14.027416  12.990070  11.965652  14.964913
    31  C   13.411680  13.290751  12.182647  11.148155  14.344359
    32  C   13.252587  12.977463  11.804161  10.867673  14.222251
    33  O   11.877152  11.565353  10.370283   9.442578  12.865300
    34  C   11.746141  11.270052  10.021602   9.225233  12.759169
    35  C   12.378361  11.831935  10.513309   9.723076  13.428246
    36  C   12.593848  11.889306  10.549098   9.922712  13.648007
    37  O   11.602331  11.093387   9.749655   8.882871  12.670708
    38  H   14.343450  14.391596  13.403083  12.325794  15.196279
    39  H   14.506374  14.407017  13.385043  12.430638  15.376873
    40  H   13.093244  13.024798  11.909811  10.806161  14.034136
    41  H   13.953574  13.629852  12.406557  11.472181  14.950408
    42  H   13.592123  13.279802  12.135902  11.276061  14.540122
    43  H   12.342806  11.822430  10.603784   9.894449  13.333601
    44  H   10.694026  10.192168   8.946296   8.179777  11.707915
    45  H   13.340021  12.837661  11.521225  10.684584  14.388999
    46  H   13.584671  12.854065  11.500410  10.888963  14.645131
    47  H   12.502962  11.754936  10.451533   9.916539  13.533121
    48  C   11.051700  10.414928   9.038687   8.289679  12.131801
    49  O   10.331716   9.695711   8.309979   7.547624  11.417691
    50  O   11.623910  10.867053   9.497623   8.903923  12.692418
                   26         27         28         29         30
    26  H    0.000000
    27  H    2.510030   0.000000
    28  H    4.911416   4.319185   0.000000
    29  H    4.126181   4.911407   2.510019   0.000000
    30  C   11.278673  13.263543  14.867457  13.050639   0.000000
    31  C   10.539790  12.664412  14.132587  12.193351   1.336634
    32  C   10.533898  12.739098  13.750376  11.685891   2.505826
    33  O    9.191134  11.439330  12.335811  10.239308   3.518052
    34  C    9.289010  11.567495  11.953930   9.745449   4.789895
    35  C    9.860892  12.249991  12.502605  10.159441   5.668413
    36  C   10.366303  12.723692  12.451478  10.045739   7.046037
    37  O    8.941085  11.402296  11.813986   9.438008   6.269359
    38  H   11.469326  13.375609  15.270477  13.542809   1.085230
    39  H   11.856739  13.789069  15.200538  13.404476   1.087572
    40  H   10.074098  12.241373  13.911105  11.966985   2.112907
    41  H   11.186166  13.471795  14.395018  12.235742   3.166328
    42  H   11.045107  13.170943  14.003677  11.984128   2.656030
    43  H   10.060316  12.257662  12.448859  10.282432   4.877690
    44  H    8.335886  10.592666  10.865160   8.664711   5.439698
    45  H   10.706768  13.113051  13.533702  11.195837   5.336536
    46  H   11.346021  13.728117  13.398343  10.963102   7.549676
    47  H   10.476520  12.742128  12.260336   9.912320   7.177721
    48  C    8.621299  11.070335  11.063838   8.613413   7.523857
    49  O    7.903572  10.363851  10.357593   7.895752   8.348213
    50  O    9.468540  11.843700  11.414625   8.951077   7.960769
                   31         32         33         34         35
    31  C    0.000000
    32  C    1.497870   0.000000
    33  O    2.389701   1.465247   0.000000
    34  C    3.723948   2.454945   1.441053   0.000000
    35  C    4.468482   3.197415   2.479753   1.527832   0.000000
    36  C    5.917961   4.544424   3.860032   2.574977   1.548579
    37  O    4.965649   4.014493   3.026886   2.459938   1.493008
    38  H    2.119106   3.497195   4.388547   5.737444   6.583414
    39  H    2.123540   2.772342   3.886814   4.964825   5.937501
    40  H    1.087822   2.190699   2.634597   4.021601   4.574354
    41  H    2.145944   1.102935   2.111370   2.730485   2.919690
    42  H    2.157728   1.100490   2.112128   2.718403   3.653991
    43  H    4.019364   2.616349   2.104172   1.103302   2.151319
    44  H    4.407067   3.330939   2.034599   1.093894   2.146130
    45  H    4.148376   2.919354   2.691641   2.188683   1.089660
    46  H    6.435960   5.057755   4.616475   3.451908   2.221329
    47  H    6.169267   4.731101   4.060760   2.645498   2.221181
    48  C    6.245153   5.228953   4.123479   3.252156   2.336679
    49  O    7.057651   6.196103   4.996259   4.281359   3.516793
    50  O    6.754113   5.520822   4.543796   3.333433   2.383973
                   36         37         38         39         40
    36  C    0.000000
    37  O    2.371164   0.000000
    38  H    8.012756   7.038193   0.000000
    39  H    7.178799   6.748089   1.845372   0.000000
    40  H    6.104933   4.743732   2.466671   3.090752   0.000000
    41  H    4.231655   3.791257   4.089029   3.446641   2.600439
    42  H    4.758297   4.720101   3.738456   2.467136   3.095169
    43  H    2.748579   3.398837   5.908867   4.808013   4.565937
    44  H    2.856881   2.584209   6.319507   5.644642   4.598343
    45  H    2.210878   2.073717   6.235741   5.625000   4.259298
    46  H    1.090804   2.992635   8.518125   7.661694   6.625904
    47  H    1.089973   3.226254   8.193168   7.166447   6.507276
    48  C    2.332371   1.367841   8.310955   7.946503   6.047411
    49  O    3.514250   2.300512   9.050586   8.855822   6.721793
    50  O    1.480040   2.262084   8.855198   8.213696   6.757978
                   41         42         43         44         45
    41  H    0.000000
    42  H    1.781551   0.000000
    43  H    2.903174   2.419951   0.000000
    44  H    3.751687   3.575012   1.791823   0.000000
    45  H    2.290251   3.453588   2.627682   3.059634   0.000000
    46  H    4.529257   5.261616   3.515266   3.895355   2.414481
    47  H    4.583178   4.709177   2.447514   2.805892   2.935085
    48  C    5.054415   5.809338   4.052387   3.019854   3.121400
    49  O    6.080307   6.846374   5.147711   3.861395   4.256134
    50  O    5.301412   5.876422   3.791862   3.172081   3.211979
                   46         47         48         49         50
    46  H    0.000000
    47  H    1.791361   0.000000
    48  C    2.972855   3.106431   0.000000
    49  O    4.089634   4.214733   1.227868   0.000000
    50  O    2.089874   2.081292   1.371422   2.295179   0.000000
 Symmetry turned off by external request.
 Stoichiometry    C16H19NO12Zn2
 Framework group  C1[X(C16H19NO12Zn2)]
 Deg. of freedom   144
 Full point group                 C1      NOp   1
 Rotational constants (GHZ):           0.2096404           0.0629408           0.0552039
 General basis read from cards:  (5D, 7F)
 ======================================================================================================
                                       Pseudopotential Parameters
 ======================================================================================================
  Center     Atomic      Valence      Angular      Power
  Number     Number     Electrons     Momentum     of R      Exponent        Coefficient   SO-Coeffient
 ======================================================================================================
    1         30           12
                                      F and up 
                                                     1      386.7379660      -18.00000000    0.00000000
                                                     2       72.8587359     -124.35274030    0.00000000
                                                     2       15.9066170      -30.66018220    0.00000000
                                                     2        4.3502340      -10.63589890    0.00000000
                                                     2        1.2842199       -0.76836230    0.00000000
                                      S - F
                                                     0       19.0867858        3.00000000    0.00000000
                                                     1        5.0231080       22.52342250    0.00000000
                                                     2        1.2701744       48.44659420    0.00000000
                                                     2        1.0671287      -44.55601190    0.00000000
                                                     2        0.9264190       12.99839580    0.00000000
                                      P - F
                                                     0       43.4927750        5.00000000    0.00000000
                                                     1       20.8692669       20.74355890    0.00000000
                                                     2       21.7118378       90.30271580    0.00000000
                                                     2        6.3616915       74.66103160    0.00000000
                                                     2        1.2291195        9.88944240    0.00000000
                                      D - F
                                                     2       13.5851800       -4.84903590    0.00000000
                                                     2        9.8373050        3.69133790    0.00000000
                                                     2        0.8373113       -0.50373190    0.00000000
    2          8
                                   No pseudopotential on this center.
    3          8
                                   No pseudopotential on this center.
    4          8
                                   No pseudopotential on this center.
    5          8
                                   No pseudopotential on this center.
    6          6
                                   No pseudopotential on this center.
    7          6
                                   No pseudopotential on this center.
    8         30           12
                                      F and up 
                                                     1      386.7379660      -18.00000000    0.00000000
                                                     2       72.8587359     -124.35274030    0.00000000
                                                     2       15.9066170      -30.66018220    0.00000000
                                                     2        4.3502340      -10.63589890    0.00000000
                                                     2        1.2842199       -0.76836230    0.00000000
                                      S - F
                                                     0       19.0867858        3.00000000    0.00000000
                                                     1        5.0231080       22.52342250    0.00000000
                                                     2        1.2701744       48.44659420    0.00000000
                                                     2        1.0671287      -44.55601190    0.00000000
                                                     2        0.9264190       12.99839580    0.00000000
                                      P - F
                                                     0       43.4927750        5.00000000    0.00000000
                                                     1       20.8692669       20.74355890    0.00000000
                                                     2       21.7118378       90.30271580    0.00000000
                                                     2        6.3616915       74.66103160    0.00000000
                                                     2        1.2291195        9.88944240    0.00000000
                                      D - F
                                                     2       13.5851800       -4.84903590    0.00000000
                                                     2        9.8373050        3.69133790    0.00000000
                                                     2        0.8373113       -0.50373190    0.00000000
    9          8
                                   No pseudopotential on this center.
   10          8
                                   No pseudopotential on this center.
   11          8
                                   No pseudopotential on this center.
   12          8
                                   No pseudopotential on this center.
   13          6
                                   No pseudopotential on this center.
   14          6
                                   No pseudopotential on this center.
   15          1
                                   No pseudopotential on this center.
   16          1
                                   No pseudopotential on this center.
   17          1
                                   No pseudopotential on this center.
   18          1
                                   No pseudopotential on this center.
   19          6
                                   No pseudopotential on this center.
   20          6
                                   No pseudopotential on this center.
   21          6
                                   No pseudopotential on this center.
   22          6
                                   No pseudopotential on this center.
   23          6
                                   No pseudopotential on this center.
   24          7
                                   No pseudopotential on this center.
   25          1
                                   No pseudopotential on this center.
   26          1
                                   No pseudopotential on this center.
   27          1
                                   No pseudopotential on this center.
   28          1
                                   No pseudopotential on this center.
   29          1
                                   No pseudopotential on this center.
   30          6
                                   No pseudopotential on this center.
   31          6
                                   No pseudopotential on this center.
   32          6
                                   No pseudopotential on this center.
   33          8
                                   No pseudopotential on this center.
   34          6
                                   No pseudopotential on this center.
   35          6
                                   No pseudopotential on this center.
   36          6
                                   No pseudopotential on this center.
   37          8
                                   No pseudopotential on this center.
   38          1
                                   No pseudopotential on this center.
   39          1
                                   No pseudopotential on this center.
   40          1
                                   No pseudopotential on this center.
   41          1
                                   No pseudopotential on this center.
   42          1
                                   No pseudopotential on this center.
   43          1
                                   No pseudopotential on this center.
   44          1
                                   No pseudopotential on this center.
   45          1
                                   No pseudopotential on this center.
   46          1
                                   No pseudopotential on this center.
   47          1
                                   No pseudopotential on this center.
   48          6
                                   No pseudopotential on this center.
   49          8
                                   No pseudopotential on this center.
   50          8
                                   No pseudopotential on this center.
 ======================================================================================================
   653 basis functions,  1139 primitive gaussians,   686 cartesian basis functions
   121 alpha electrons      121 beta electrons
       nuclear repulsion energy      3477.7897795967 Hartrees.
 NAtoms=   50 NActive=   50 NUniq=   50 SFac= 1.00D+00 NAtFMM=   60 NAOKFM=F Big=F
 Integral buffers will be    131072 words long.
 Raffenetti 2 integral format.
 Two-electron integral symmetry is turned off.
 One-electron integrals computed using PRISM.
   1 Symmetry operations used in ECPInt.
 ECPInt:  NShTT=   23005 NPrTT=  108009 LenC2=   17510 LenP2D=   48841.
 LDataN:  DoStor=T MaxTD1= 5 Len=  102
 NBasis=   653 RedAO= T EigKep=  7.30D-06  NBF=   653
 NBsUse=   653 1.00D-06 EigRej= -1.00D+00 NBFU=   653
 ExpMin= 3.51D-02 ExpMax= 5.48D+03 ExpMxC= 8.25D+02 IAcc=3 IRadAn=         5 AccDes= 0.00D+00
 Harris functional with IExCor=  402 and IRadAn=       5 diagonalized for initial guess.
 HarFok:  IExCor=  402 AccDes= 0.00D+00 IRadAn=         5 IDoV= 1 UseB2=F ITyADJ=14
 ICtDFT=  3500011 ScaDFX=  1.000000  1.000000  1.000000  1.000000
 FoFCou: FMM=F IPFlag=           0 FMFlag=      100000 FMFlg1=           0
         NFxFlg=           0 DoJE=T BraDBF=F KetDBF=T FulRan=T
         wScrn=  0.000000 ICntrl=       500 IOpCl=  0 I1Cent=   200000004 NGrid=           0
         NMat0=    1 NMatS0=      1 NMatT0=    0 NMatD0=    1 NMtDS0=    0 NMtDT0=    0
 Symmetry not used in FoFCou.
 Gradient too large for Newton-Raphson -- use scaled steepest descent instead.
     Accept linear search using points  2 and  3.
 Gradient too large for Newton-Raphson -- use scaled steepest descent instead.
     Accept linear search using points  2 and  3.
 Gradient too large for Newton-Raphson -- use scaled steepest descent instead.
     Minimum is close to point  2 DX=  4.01D-02 DF= -5.66D-05 DXR=  9.11D-02 DFR=  8.36D-03 which will be used.
 Gradient too large for Newton-Raphson -- use scaled steepest descent instead.
 Gradient too large for Newton-Raphson -- use scaled steepest descent instead.
     Accept linear search using points  1 and  2.
 Gradient too large for Newton-Raphson -- use scaled steepest descent instead.
     Accept linear search using points  2 and  3.
 LinEq1:  Iter=  0 NonCon=     1 RMS=1.93D-05 Max=1.22D-03 NDo=     1
 AX will form     1 AO Fock derivatives at one time.
 LinEq1:  Iter=  1 NonCon=     1 RMS=2.06D-05 Max=7.93D-04 NDo=     1
 LinEq1:  Iter=  2 NonCon=     1 RMS=9.42D-06 Max=5.39D-04 NDo=     1
 LinEq1:  Iter=  3 NonCon=     1 RMS=3.47D-06 Max=9.74D-05 NDo=     1
 LinEq1:  Iter=  4 NonCon=     1 RMS=3.16D-06 Max=1.41D-04 NDo=     1
 LinEq1:  Iter=  5 NonCon=     1 RMS=1.46D-06 Max=6.26D-05 NDo=     1
 LinEq1:  Iter=  6 NonCon=     1 RMS=8.63D-07 Max=4.45D-05 NDo=     1
 LinEq1:  Iter=  7 NonCon=     1 RMS=6.30D-07 Max=2.70D-05 NDo=     1
 LinEq1:  Iter=  8 NonCon=     1 RMS=4.04D-07 Max=1.49D-05 NDo=     1
 LinEq1:  Iter=  9 NonCon=     1 RMS=1.94D-07 Max=9.54D-06 NDo=     1
 LinEq1:  Iter= 10 NonCon=     1 RMS=1.53D-07 Max=5.82D-06 NDo=     1
 LinEq1:  Iter= 11 NonCon=     1 RMS=9.26D-08 Max=4.43D-06 NDo=     1
 LinEq1:  Iter= 12 NonCon=     1 RMS=6.33D-08 Max=2.94D-06 NDo=     1
 LinEq1:  Iter= 13 NonCon=     1 RMS=5.10D-08 Max=2.17D-06 NDo=     1
 LinEq1:  Iter= 14 NonCon=     1 RMS=2.95D-08 Max=2.63D-06 NDo=     1
 LinEq1:  Iter= 15 NonCon=     1 RMS=1.73D-08 Max=9.64D-07 NDo=     1
 LinEq1:  Iter= 16 NonCon=     1 RMS=1.13D-08 Max=6.47D-07 NDo=     1
 LinEq1:  Iter= 17 NonCon=     1 RMS=6.39D-09 Max=4.94D-07 NDo=     1
 LinEq1:  Iter= 18 NonCon=     0 RMS=3.31D-09 Max=1.37D-07 NDo=     1
 Linear equations converged to 3.588D-08 3.588D-07 after    18 iterations.
     Minimum is close to point  2 DX=  2.48D-04 DF= -6.82D-13 DXR=  2.48D-04 DFR=  5.47D-08 which will be used.
 SCF Done:  E(RB3LYP) =  -1710.07179154     a.u. after    8 cycles
            Convg  =    0.2427D-05                    37 Fock formations.
              S**2 =  0.0000                  -V/T =  1.9513
 DoSCS=F DFT=T ScalE2(SS,OS)=  1.000000  1.000000
 Range of M.O.s used for correlation:     1   653
 NBasis=   653 NAE=   121 NBE=   121 NFC=     0 NFV=     0
 NROrb=    653 NOA=   121 NOB=   121 NVA=   532 NVB=   532

 **** Warning!!: The largest alpha MO coefficient is  0.64538853D+02

   1 Symmetry operations used in ECPInt.
 ECPInt:  NShTT=   23005 NPrTT=  108009 LenC2=   17510 LenP2D=   48841.
 LDataN:  DoStor=T MaxTD1= 6 Len=  172
 Number of processors reduced to  15 by ecpmxn.
 Symmetrizing basis deriv contribution to polar:
 IMax=3 JMax=2 DiffMx= 0.00D+00
 G2DrvN: will do    51 centers at a time, making    1 passes.
 Calling FoFCou, ICntrl=  3107 FMM=F I1Cent=   0 AccDes= 0.00D+00.
 End of G2Drv F.D. properties file   721 does not exist.
 End of G2Drv F.D. properties file   722 does not exist.
 End of G2Drv F.D. properties file   788 does not exist.
          IDoAtm=00101001101000000000000000000111111111111111111111
          Differentiating once with respect to electric field.
                with respect to dipole field.
          Differentiating once with respect to nuclear coordinates.
 CalDSu exits because no D1Ps are significant.
          There are    81 degrees of freedom in the 1st order CPHF.  IDoFFX=6 NUNeed=     3.
     81 vectors produced by pass  0 Test12= 7.95D-14 1.23D-09 XBig12= 2.63D+02 5.48D+00.
 AX will form    81 AO Fock derivatives at one time.
     81 vectors produced by pass  1 Test12= 7.95D-14 1.23D-09 XBig12= 1.47D+02 3.25D+00.
     81 vectors produced by pass  2 Test12= 7.95D-14 1.23D-09 XBig12= 1.01D+01 6.90D-01.
     81 vectors produced by pass  3 Test12= 7.95D-14 1.23D-09 XBig12= 2.24D+00 4.25D-01.
     81 vectors produced by pass  4 Test12= 7.95D-14 1.23D-09 XBig12= 1.13D-01 5.33D-02.
     81 vectors produced by pass  5 Test12= 7.95D-14 1.23D-09 XBig12= 1.52D-03 3.24D-03.
     44 vectors produced by pass  6 Test12= 7.95D-14 1.23D-09 XBig12= 7.55D-06 1.99D-04.
     18 vectors produced by pass  7 Test12= 7.95D-14 1.23D-09 XBig12= 1.80D-08 1.05D-05.
      8 vectors produced by pass  8 Test12= 7.95D-14 1.23D-09 XBig12= 8.15D-11 1.48D-06.
      3 vectors produced by pass  9 Test12= 7.95D-14 1.23D-09 XBig12= 5.54D-13 7.92D-08.
      2 vectors produced by pass 10 Test12= 7.95D-14 1.23D-09 XBig12= 2.99D-15 5.76D-09.
 InvSVY:  IOpt=1 It=  1 EMax= 2.13D-14
 Solved reduced A of dimension   561 with    81 vectors.
 Isotropic polarizability for W=    0.000000      270.22 Bohr**3.
 End of Minotr F.D. properties file   721 does not exist.
 End of Minotr F.D. properties file   722 does not exist.
 End of Minotr F.D. properties file   788 does not exist.

 **********************************************************************

            Population analysis using the SCF Density.

 **********************************************************************

 Alpha  occ. eigenvalues --  -19.23439 -19.23073 -19.17833 -19.17317 -19.13042
 Alpha  occ. eigenvalues --  -19.12892 -19.12622 -19.12579 -19.12064 -19.11923
 Alpha  occ. eigenvalues --  -19.11533 -19.11502 -14.38617 -10.40336 -10.29745
 Alpha  occ. eigenvalues --  -10.29428 -10.29253 -10.28946 -10.28905 -10.28706
 Alpha  occ. eigenvalues --  -10.26250 -10.25676 -10.25209 -10.25203 -10.23757
 Alpha  occ. eigenvalues --  -10.22539 -10.22535 -10.20653 -10.19830  -1.16994
 Alpha  occ. eigenvalues --   -1.06441  -1.06202  -1.05131  -1.04434  -1.04167
 Alpha  occ. eigenvalues --   -1.04009  -1.03901  -0.98108  -0.96715  -0.95847
 Alpha  occ. eigenvalues --   -0.95506  -0.95470  -0.83580  -0.83014  -0.80162
 Alpha  occ. eigenvalues --   -0.79378  -0.73564  -0.69471  -0.66397  -0.65883
 Alpha  occ. eigenvalues --   -0.65616  -0.62673  -0.61682  -0.60925  -0.60101
 Alpha  occ. eigenvalues --   -0.59668  -0.59303  -0.59278  -0.58819  -0.58800
 Alpha  occ. eigenvalues --   -0.58632  -0.58379  -0.58204  -0.58069  -0.56810
 Alpha  occ. eigenvalues --   -0.56671  -0.55773  -0.55344  -0.54095  -0.53519
 Alpha  occ. eigenvalues --   -0.53337  -0.51187  -0.50637  -0.49943  -0.49663
 Alpha  occ. eigenvalues --   -0.48898  -0.47947  -0.47694  -0.47139  -0.46732
 Alpha  occ. eigenvalues --   -0.46353  -0.46010  -0.45367  -0.45334  -0.44628
 Alpha  occ. eigenvalues --   -0.44315  -0.44239  -0.43363  -0.43222  -0.43124
 Alpha  occ. eigenvalues --   -0.41925  -0.41605  -0.41124  -0.40312  -0.40191
 Alpha  occ. eigenvalues --   -0.39868  -0.39647  -0.39195  -0.38152  -0.36937
 Alpha  occ. eigenvalues --   -0.34956  -0.34885  -0.33914  -0.33599  -0.33206
 Alpha  occ. eigenvalues --   -0.32345  -0.31605  -0.29323  -0.29031  -0.28958
 Alpha  occ. eigenvalues --   -0.28843  -0.28509  -0.27908  -0.27593  -0.27447
 Alpha  occ. eigenvalues --   -0.27126  -0.26775  -0.26428  -0.26407  -0.26021
 Alpha  occ. eigenvalues --   -0.24689
 Alpha virt. eigenvalues --   -0.06791  -0.04480  -0.02159  -0.01794  -0.01589
 Alpha virt. eigenvalues --   -0.00665  -0.00535   0.00587   0.00729   0.01270
 Alpha virt. eigenvalues --    0.01633   0.02077   0.02098   0.02246   0.02280
 Alpha virt. eigenvalues --    0.02872   0.03421   0.03503   0.03679   0.03879
 Alpha virt. eigenvalues --    0.04067   0.04311   0.04546   0.04804   0.05170
 Alpha virt. eigenvalues --    0.05345   0.06126   0.06244   0.06346   0.06603
 Alpha virt. eigenvalues --    0.07174   0.07488   0.07811   0.07889   0.08230
 Alpha virt. eigenvalues --    0.08709   0.08811   0.09088   0.09304   0.09513
 Alpha virt. eigenvalues --    0.09653   0.09991   0.10311   0.10408   0.10854
 Alpha virt. eigenvalues --    0.11339   0.11896   0.12072   0.12182   0.12554
 Alpha virt. eigenvalues --    0.12785   0.12851   0.13134   0.13308   0.13548
 Alpha virt. eigenvalues --    0.14038   0.14217   0.14506   0.14973   0.15425
 Alpha virt. eigenvalues --    0.15487   0.15723   0.15910   0.16292   0.16498
 Alpha virt. eigenvalues --    0.16787   0.17119   0.17137   0.17513   0.17710
 Alpha virt. eigenvalues --    0.18371   0.18659   0.18753   0.18999   0.19562
 Alpha virt. eigenvalues --    0.19578   0.19673   0.20002   0.20275   0.20521
 Alpha virt. eigenvalues --    0.20779   0.21043   0.21209   0.21533   0.21717
 Alpha virt. eigenvalues --    0.22246   0.22516   0.22991   0.23100   0.23218
 Alpha virt. eigenvalues --    0.23588   0.23700   0.23968   0.24175   0.24324
 Alpha virt. eigenvalues --    0.24763   0.24930   0.25205   0.25842   0.25985
 Alpha virt. eigenvalues --    0.26267   0.26514   0.26683   0.27144   0.27726
 Alpha virt. eigenvalues --    0.27825   0.27998   0.28131   0.28451   0.28792
 Alpha virt. eigenvalues --    0.28956   0.29218   0.30076   0.30223   0.30631
 Alpha virt. eigenvalues --    0.31074   0.31467   0.31677   0.31875   0.32245
 Alpha virt. eigenvalues --    0.32479   0.32803   0.32980   0.33078   0.33596
 Alpha virt. eigenvalues --    0.33686   0.34238   0.34495   0.34734   0.34988
 Alpha virt. eigenvalues --    0.35336   0.35412   0.35655   0.35806   0.35974
 Alpha virt. eigenvalues --    0.36687   0.36965   0.37684   0.37876   0.38341
 Alpha virt. eigenvalues --    0.38456   0.38607   0.39002   0.39233   0.39500
 Alpha virt. eigenvalues --    0.39848   0.40551   0.40711   0.41130   0.41649
 Alpha virt. eigenvalues --    0.41835   0.42207   0.42569   0.42858   0.43226
 Alpha virt. eigenvalues --    0.43308   0.44350   0.45081   0.45131   0.45668
 Alpha virt. eigenvalues --    0.45834   0.46484   0.46720   0.47124   0.47697
 Alpha virt. eigenvalues --    0.47898   0.48856   0.49600   0.49677   0.50398
 Alpha virt. eigenvalues --    0.51753   0.52391   0.52766   0.53544   0.54164
 Alpha virt. eigenvalues --    0.55269   0.55344   0.56069   0.56884   0.57706
 Alpha virt. eigenvalues --    0.58448   0.61207   0.61561   0.63333   0.63638
 Alpha virt. eigenvalues --    0.65348   0.65716   0.65793   0.66722   0.67526
 Alpha virt. eigenvalues --    0.68006   0.68944   0.69658   0.70344   0.71774
 Alpha virt. eigenvalues --    0.72295   0.72928   0.73149   0.73436   0.73943
 Alpha virt. eigenvalues --    0.75033   0.75667   0.77012   0.78503   0.79348
 Alpha virt. eigenvalues --    0.80306   0.81477   0.81761   0.82006   0.82244
 Alpha virt. eigenvalues --    0.83234   0.84397   0.86280   0.86457   0.88328
 Alpha virt. eigenvalues --    0.88431   0.89005   0.89211   0.89856   0.90252
 Alpha virt. eigenvalues --    0.90466   0.90906   0.91421   0.92197   0.92704
 Alpha virt. eigenvalues --    0.93229   0.94211   0.94476   0.95058   0.95686
 Alpha virt. eigenvalues --    0.96258   0.96750   0.97067   0.98280   0.99189
 Alpha virt. eigenvalues --    1.00145   1.00276   1.00725   1.01826   1.03331
 Alpha virt. eigenvalues --    1.03553   1.04547   1.05252   1.05835   1.06613
 Alpha virt. eigenvalues --    1.07148   1.08150   1.09887   1.11880   1.13137
 Alpha virt. eigenvalues --    1.14191   1.14895   1.15415   1.15899   1.16029
 Alpha virt. eigenvalues --    1.16978   1.17221   1.17431   1.18223   1.19059
 Alpha virt. eigenvalues --    1.19623   1.19813   1.20521   1.20947   1.21233
 Alpha virt. eigenvalues --    1.21557   1.21885   1.22646   1.23547   1.24689
 Alpha virt. eigenvalues --    1.24805   1.25085   1.26472   1.27275   1.27808
 Alpha virt. eigenvalues --    1.28178   1.28756   1.29081   1.29813   1.31037
 Alpha virt. eigenvalues --    1.32556   1.32985   1.34152   1.34512   1.35405
 Alpha virt. eigenvalues --    1.35881   1.36508   1.36667   1.36699   1.36997
 Alpha virt. eigenvalues --    1.37579   1.38413   1.38783   1.39051   1.39816
 Alpha virt. eigenvalues --    1.39865   1.40525   1.41514   1.42654   1.43414
 Alpha virt. eigenvalues --    1.43664   1.44116   1.44193   1.44684   1.45393
 Alpha virt. eigenvalues --    1.45843   1.46219   1.46680   1.47386   1.47829
 Alpha virt. eigenvalues --    1.48776   1.48958   1.51094   1.51738   1.52643
 Alpha virt. eigenvalues --    1.54127   1.54289   1.54918   1.55482   1.56268
 Alpha virt. eigenvalues --    1.56480   1.57205   1.58384   1.58908   1.59528
 Alpha virt. eigenvalues --    1.59601   1.59842   1.61767   1.63091   1.65554
 Alpha virt. eigenvalues --    1.66760   1.67396   1.67565   1.68875   1.70338
 Alpha virt. eigenvalues --    1.71027   1.71990   1.73061   1.73279   1.74302
 Alpha virt. eigenvalues --    1.75968   1.76588   1.77523   1.78202   1.79545
 Alpha virt. eigenvalues --    1.79860   1.80375   1.81441   1.81779   1.82079
 Alpha virt. eigenvalues --    1.83137   1.83180   1.83747   1.83987   1.84536
 Alpha virt. eigenvalues --    1.84976   1.85612   1.85818   1.86837   1.87932
 Alpha virt. eigenvalues --    1.88501   1.88666   1.89708   1.89973   1.90284
 Alpha virt. eigenvalues --    1.90700   1.90891   1.90972   1.91461   1.92021
 Alpha virt. eigenvalues --    1.92626   1.93206   1.93901   1.94399   1.94781
 Alpha virt. eigenvalues --    1.94826   1.95614   1.96608   1.97205   1.97276
 Alpha virt. eigenvalues --    1.97318   1.97511   1.97813   1.98075   1.98821
 Alpha virt. eigenvalues --    1.99090   1.99655   1.99764   2.00871   2.01703
 Alpha virt. eigenvalues --    2.02365   2.02807   2.03930   2.04167   2.06299
 Alpha virt. eigenvalues --    2.06644   2.07531   2.07728   2.08675   2.10291
 Alpha virt. eigenvalues --    2.11129   2.11479   2.11994   2.13039   2.15018
 Alpha virt. eigenvalues --    2.16819   2.17029   2.18547   2.19796   2.20431
 Alpha virt. eigenvalues --    2.21541   2.22373   2.23061   2.24328   2.24519
 Alpha virt. eigenvalues --    2.25318   2.25491   2.26143   2.26616   2.27163
 Alpha virt. eigenvalues --    2.27622   2.27650   2.28539   2.28924   2.29000
 Alpha virt. eigenvalues --    2.30873   2.32430   2.32999   2.33718   2.34253
 Alpha virt. eigenvalues --    2.35021   2.35113   2.36432   2.36923   2.38065
 Alpha virt. eigenvalues --    2.38140   2.38275   2.42837   2.42860   2.44383
 Alpha virt. eigenvalues --    2.45497   2.47148   2.47846   2.50776   2.50888
 Alpha virt. eigenvalues --    2.52302   2.52347   2.52470   2.54014   2.54818
 Alpha virt. eigenvalues --    2.55420   2.56670   2.56775   2.57839   2.58488
 Alpha virt. eigenvalues --    2.59002   2.59163   2.60135   2.62319   2.64685
 Alpha virt. eigenvalues --    2.65039   2.65265   2.66711   2.66864   2.67319
 Alpha virt. eigenvalues --    2.68330   2.68717   2.68808   2.69583   2.70063
 Alpha virt. eigenvalues --    2.70242   2.71239   2.73606   2.74544   2.76830
 Alpha virt. eigenvalues --    2.77220   2.77699   2.79825   2.80340   2.80431
 Alpha virt. eigenvalues --    2.81036   2.81179   2.83081   2.83397   2.84078
 Alpha virt. eigenvalues --    2.84984   2.88885   2.92221   2.94694   2.96281
 Alpha virt. eigenvalues --    2.98426   2.98725   2.99893   3.02323   3.03106
 Alpha virt. eigenvalues --    3.03143   3.04144   3.04463   3.04721   3.05695
 Alpha virt. eigenvalues --    3.06321   3.06951   3.07391   3.13707   3.15573
 Alpha virt. eigenvalues --    3.16331   3.16767   3.17428   3.24083   3.24265
 Alpha virt. eigenvalues --    3.25118   3.26041   3.26541   3.30191   3.30527
 Alpha virt. eigenvalues --    3.30892   3.34344   3.36099   3.41726   3.43720
 Alpha virt. eigenvalues --    3.45927   3.46563   3.48622   3.48918   3.49305
 Alpha virt. eigenvalues --    3.50442   3.52942   3.56007   3.68619   3.90807
 Alpha virt. eigenvalues --   11.23673  11.59370
          Condensed to atoms (all electrons):
               1          2          3          4          5          6
     1  Zn  11.845830   0.131774  -0.059961   0.004464  -0.023042  -0.126700
     2  O    0.131774   8.529672  -0.204998  -0.040911   0.008236   0.250956
     3  O   -0.059961  -0.204998   8.460983   0.011200  -0.035447   0.303085
     4  O    0.004464  -0.040911   0.011200   8.503549  -0.240130   0.038457
     5  O   -0.023042   0.008236  -0.035447  -0.240130   8.530587  -0.003009
     6  C   -0.126700   0.250956   0.303085   0.038457  -0.003009   4.768749
     7  C   -0.104568   0.007827   0.010937   0.280257   0.289156  -0.031719
     8  Zn   0.120776  -0.043938   0.032231  -0.059242   0.173279  -0.099698
     9  O   -0.058067   0.001132  -0.005474   0.009403  -0.041103   0.012785
    10  O    0.134613   0.010433   0.000969  -0.041083   0.009780  -0.000416
    11  O   -0.017535   0.005880  -0.023380   0.000315   0.011437   0.005799
    12  O    0.025022  -0.040371   0.003534  -0.001808   0.000838   0.029882
    13  C   -0.120744   0.000019   0.012868   0.036254  -0.001730   0.000732
    14  C   -0.114053   0.003039   0.030601   0.012783  -0.006830  -0.018690
    15  H    0.017016  -0.117000  -0.080801  -0.001942  -0.000492   0.450698
    16  H    0.004467  -0.000582  -0.002219  -0.090179  -0.116642   0.000286
    17  H    0.016531   0.000041  -0.000050  -0.001944  -0.000564   0.000206
    18  H    0.005253  -0.000538  -0.002572  -0.000123   0.000082  -0.000489
    19  C   -0.004344   0.050527   0.001187  -0.004034   0.001038  -0.006954
    20  C   -0.075208  -0.006421   0.002578  -0.011761  -0.000689  -0.042401
    21  C   -0.093794   0.003058   0.000183   0.000414   0.000079   0.002435
    22  C   -0.099273  -0.004470   0.000138  -0.011207  -0.000357  -0.022381
    23  C    0.001486  -0.011907  -0.003617  -0.004579   0.001939  -0.005545
    24  N   -0.115050  -0.034034  -0.000747   0.027399   0.000558   0.022267
    25  H    0.000750   0.000004   0.000000  -0.000000  -0.000000  -0.000002
    26  H   -0.010881  -0.003551  -0.000006   0.000290  -0.000000   0.003460
    27  H    0.002970   0.000418   0.000001   0.000006   0.000000   0.000344
    28  H    0.002930   0.000011   0.000000   0.000006   0.000000   0.000019
    29  H   -0.011013   0.000363   0.000001   0.000291   0.000000   0.000380
    30  C   -0.000003   0.000001   0.000005  -0.000008  -0.000023  -0.000063
    31  C    0.000030  -0.000004  -0.000005  -0.000099  -0.000102   0.000020
    32  C   -0.000212   0.000037   0.000277   0.000067  -0.000059   0.000138
    33  O   -0.000131   0.000007   0.000036   0.000235   0.004193   0.000214
    34  C    0.001900  -0.000221   0.000182  -0.002471  -0.012112  -0.001962
    35  C   -0.001432   0.000264   0.000310  -0.003154  -0.012433   0.000266
    36  C    0.001384  -0.000011  -0.000339   0.000161   0.005050   0.000642
    37  O    0.000783   0.000057  -0.000030  -0.000641   0.003157  -0.000480
    38  H   -0.000000   0.000000  -0.000000  -0.000000   0.000000  -0.000000
    39  H    0.000000   0.000000   0.000000  -0.000000  -0.000000  -0.000000
    40  H    0.000000  -0.000000  -0.000000   0.000000  -0.000001   0.000002
    41  H    0.000001  -0.000000   0.000000   0.000000   0.000003   0.000000
    42  H   -0.000000  -0.000000  -0.000000   0.000000   0.000005   0.000000
    43  H   -0.000007   0.000000  -0.000000   0.000012   0.001302   0.000003
    44  H   -0.000253   0.000001   0.000046  -0.000063  -0.008317  -0.000112
    45  H    0.000015   0.000000   0.000002  -0.000001  -0.000266  -0.000008
    46  H    0.000010  -0.000000   0.000001  -0.000001  -0.000118  -0.000001
    47  H   -0.000016  -0.000000  -0.000002   0.000014   0.000735   0.000003
    48  C    0.003848  -0.001233  -0.006410  -0.001839  -0.014920  -0.005259
    49  O   -0.005565  -0.000023   0.005021   0.002634  -0.013236   0.005896
    50  O    0.000724   0.000018   0.000015  -0.000769  -0.006250   0.000237
               7          8          9         10         11         12
     1  Zn  -0.104568   0.120776  -0.058067   0.134613  -0.017535   0.025022
     2  O    0.007827  -0.043938   0.001132   0.010433   0.005880  -0.040371
     3  O    0.010937   0.032231  -0.005474   0.000969  -0.023380   0.003534
     4  O    0.280257  -0.059242   0.009403  -0.041083   0.000315  -0.001808
     5  O    0.289156   0.173279  -0.041103   0.009780   0.011437   0.000838
     6  C   -0.031719  -0.099698   0.012785  -0.000416   0.005799   0.029882
     7  C    4.708437  -0.062405   0.013314   0.007223   0.003135   0.008387
     8  Zn  -0.062405  12.154566   0.041917  -0.040666   0.096382  -0.057545
     9  O    0.013314   0.041917   8.471268  -0.207807  -0.024360   0.003782
    10  O    0.007223  -0.040666  -0.207807   8.530969   0.005814  -0.040580
    11  O    0.003135   0.096382  -0.024360   0.005814   8.338315  -0.179800
    12  O    0.008387  -0.057545   0.003782  -0.040580  -0.179800   8.502473
    13  C   -0.037148  -0.101263   0.300874   0.248968   0.005571   0.028734
    14  C   -0.009520  -0.196178   0.027191   0.000323   0.320340   0.260246
    15  H   -0.000148   0.007808  -0.000052   0.000041  -0.000452  -0.001929
    16  H    0.447665   0.028842  -0.002205  -0.000508   0.000048  -0.000092
    17  H   -0.000270   0.008259  -0.081303  -0.117684  -0.000472  -0.001944
    18  H   -0.000134   0.029620  -0.002522  -0.000538  -0.099648  -0.102769
    19  C    0.008046   0.000789  -0.003678  -0.013164   0.000892  -0.006990
    20  C   -0.002655  -0.003719   0.000394  -0.004042  -0.000179  -0.009747
    21  C    0.000104   0.000677   0.000122   0.002748   0.000039  -0.000089
    22  C    0.000272   0.003404   0.002228  -0.004429  -0.000266  -0.010810
    23  C    0.009916   0.004930  -0.000450   0.048491   0.000574  -0.008270
    24  N    0.010004   0.003119  -0.000981  -0.034617  -0.000218   0.027751
    25  H    0.000002   0.000002   0.000000   0.000004  -0.000000  -0.000000
    26  H    0.000005  -0.000358   0.000001   0.000362   0.000001   0.000328
    27  H    0.000006  -0.000020   0.000000   0.000011   0.000000   0.000006
    28  H    0.000006  -0.000020   0.000001   0.000417   0.000000   0.000006
    29  H    0.000025  -0.000397  -0.000016  -0.003593   0.000001   0.000332
    30  C    0.000047  -0.000084   0.000000   0.000000   0.000000   0.000000
    31  C   -0.000732   0.000545   0.000001   0.000000   0.000000   0.000000
    32  C    0.001373  -0.001430   0.000038   0.000003   0.000032   0.000002
    33  O    0.000407   0.016793   0.000012  -0.000000   0.000010   0.000000
    34  C   -0.007355  -0.086538  -0.000748   0.000043   0.000144   0.000062
    35  C    0.000269   0.078713   0.001839   0.000244   0.000622  -0.000092
    36  C   -0.012140   0.056337  -0.000999  -0.000070  -0.000855  -0.000026
    37  O   -0.009108   0.020500  -0.000064   0.000017  -0.001349  -0.000100
    38  H   -0.000000   0.000000  -0.000000  -0.000000   0.000000  -0.000000
    39  H    0.000000  -0.000001  -0.000000   0.000000  -0.000000  -0.000000
    40  H   -0.000005  -0.000003   0.000000   0.000000   0.000000  -0.000000
    41  H    0.000000  -0.000014   0.000000   0.000000  -0.000000  -0.000000
    42  H   -0.000054   0.000197  -0.000000   0.000000   0.000000   0.000000
    43  H   -0.001040   0.005372   0.000001  -0.000000   0.000000   0.000000
    44  H    0.005265  -0.020861  -0.000012   0.000001  -0.000002   0.000001
    45  H   -0.000101  -0.003907   0.000000   0.000000  -0.000001   0.000000
    46  H   -0.000059  -0.005021   0.000003   0.000000  -0.000000   0.000000
    47  H    0.000468   0.005543  -0.000016  -0.000000  -0.000001  -0.000000
    48  C    0.012426  -0.834611  -0.006391  -0.000600  -0.011652   0.004741
    49  O    0.020531   0.188086   0.004772   0.000038  -0.017545   0.000897
    50  O   -0.007325  -0.007508   0.000620   0.000062  -0.001212  -0.000093
              13         14         15         16         17         18
     1  Zn  -0.120744  -0.114053   0.017016   0.004467   0.016531   0.005253
     2  O    0.000019   0.003039  -0.117000  -0.000582   0.000041  -0.000538
     3  O    0.012868   0.030601  -0.080801  -0.002219  -0.000050  -0.002572
     4  O    0.036254   0.012783  -0.001942  -0.090179  -0.001944  -0.000123
     5  O   -0.001730  -0.006830  -0.000492  -0.116642  -0.000564   0.000082
     6  C    0.000732  -0.018690   0.450698   0.000286   0.000206  -0.000489
     7  C   -0.037148  -0.009520  -0.000148   0.447665  -0.000270  -0.000134
     8  Zn  -0.101263  -0.196178   0.007808   0.028842   0.008259   0.029620
     9  O    0.300874   0.027191  -0.000052  -0.002205  -0.081303  -0.002522
    10  O    0.248968   0.000323   0.000041  -0.000508  -0.117684  -0.000538
    11  O    0.005571   0.320340  -0.000452   0.000048  -0.000472  -0.099648
    12  O    0.028734   0.260246  -0.001929  -0.000092  -0.001944  -0.102769
    13  C    4.772475  -0.015219   0.000205   0.000298   0.451535  -0.000558
    14  C   -0.015219   4.894985  -0.000665   0.000291  -0.000771   0.440034
    15  H    0.000205  -0.000665   0.638533  -0.000005   0.000000  -0.000005
    16  H    0.000298   0.000291  -0.000005   0.651036  -0.000005  -0.000000
    17  H    0.451535  -0.000771   0.000000  -0.000005   0.640542  -0.000005
    18  H   -0.000558   0.440034  -0.000005  -0.000000  -0.000005   0.637052
    19  C   -0.004507   0.005010  -0.003113  -0.000177  -0.000725   0.000100
    20  C   -0.021092   0.001832  -0.002303  -0.000218  -0.000021  -0.000221
    21  C    0.002333  -0.000147   0.000136   0.000021   0.000134   0.000028
    22  C   -0.044928  -0.001357  -0.000021  -0.000177  -0.002279  -0.000225
    23  C   -0.007542   0.002061  -0.000696  -0.000008  -0.003191   0.000069
    24  N    0.022190   0.009397  -0.001156   0.000138  -0.001167   0.000148
    25  H   -0.000002   0.000000   0.000000  -0.000000   0.000000  -0.000000
    26  H    0.000381   0.000119  -0.000003  -0.000000   0.000000  -0.000000
    27  H    0.000018   0.000005   0.000000   0.000000   0.000000   0.000000
    28  H    0.000345   0.000005   0.000000   0.000000   0.000000   0.000000
    29  H    0.003474   0.000122   0.000000  -0.000000  -0.000003  -0.000000
    30  C   -0.000002  -0.000001  -0.000001   0.000004   0.000000   0.000000
    31  C   -0.000008   0.000012  -0.000000   0.000111   0.000000   0.000000
    32  C    0.000025   0.000001  -0.000004  -0.000255   0.000000   0.000000
    33  O    0.000026   0.000143  -0.000000  -0.000042   0.000000   0.000000
    34  C    0.000481  -0.002124   0.000027  -0.002362  -0.000005   0.000000
    35  C    0.000155   0.003414   0.000009   0.005230   0.000016   0.000006
    36  C   -0.000726   0.000839   0.000007  -0.000278   0.000015  -0.000001
    37  O    0.000292   0.001899   0.000009   0.000151  -0.000000  -0.000002
    38  H   -0.000000   0.000000  -0.000000  -0.000000   0.000000  -0.000000
    39  H   -0.000000  -0.000000   0.000000   0.000000   0.000000  -0.000000
    40  H    0.000000   0.000000   0.000000   0.000000  -0.000000  -0.000000
    41  H    0.000000  -0.000000  -0.000000  -0.000000   0.000000   0.000000
    42  H    0.000000   0.000000  -0.000000   0.000000   0.000000  -0.000000
    43  H    0.000005   0.000007  -0.000000   0.000000   0.000000   0.000000
    44  H   -0.000066  -0.000127   0.000000  -0.000278   0.000000   0.000000
    45  H   -0.000002  -0.000009   0.000000   0.000000  -0.000000   0.000000
    46  H    0.000001  -0.000012   0.000000   0.000000  -0.000000   0.000000
    47  H   -0.000012   0.000012  -0.000000  -0.000000  -0.000000  -0.000000
    48  C   -0.006796  -0.090700  -0.000094  -0.009185  -0.000014   0.000691
    49  O    0.005284   0.014038  -0.000003  -0.000828  -0.000012  -0.000495
    50  O   -0.000086   0.001936  -0.000000   0.000187   0.000010  -0.000002
              19         20         21         22         23         24
     1  Zn  -0.004344  -0.075208  -0.093794  -0.099273   0.001486  -0.115050
     2  O    0.050527  -0.006421   0.003058  -0.004470  -0.011907  -0.034034
     3  O    0.001187   0.002578   0.000183   0.000138  -0.003617  -0.000747
     4  O   -0.004034  -0.011761   0.000414  -0.011207  -0.004579   0.027399
     5  O    0.001038  -0.000689   0.000079  -0.000357   0.001939   0.000558
     6  C   -0.006954  -0.042401   0.002435  -0.022381  -0.005545   0.022267
     7  C    0.008046  -0.002655   0.000104   0.000272   0.009916   0.010004
     8  Zn   0.000789  -0.003719   0.000677   0.003404   0.004930   0.003119
     9  O   -0.003678   0.000394   0.000122   0.002228  -0.000450  -0.000981
    10  O   -0.013164  -0.004042   0.002748  -0.004429   0.048491  -0.034617
    11  O    0.000892  -0.000179   0.000039  -0.000266   0.000574  -0.000218
    12  O   -0.006990  -0.009747  -0.000089  -0.010810  -0.008270   0.027751
    13  C   -0.004507  -0.021092   0.002333  -0.044928  -0.007542   0.022190
    14  C    0.005010   0.001832  -0.000147  -0.001357   0.002061   0.009397
    15  H   -0.003113  -0.002303   0.000136  -0.000021  -0.000696  -0.001156
    16  H   -0.000177  -0.000218   0.000021  -0.000177  -0.000008   0.000138
    17  H   -0.000725  -0.000021   0.000134  -0.002279  -0.003191  -0.001167
    18  H    0.000100  -0.000221   0.000028  -0.000225   0.000069   0.000148
    19  C    9.851063  -3.641093  -0.156176   0.142622  -0.923995   0.484903
    20  C   -3.641093   9.119557   0.534637   0.105145   0.130061  -0.265139
    21  C   -0.156176   0.534637   5.629381   0.548072  -0.164376  -0.102662
    22  C    0.142622   0.105145   0.548072   9.055073  -3.572919  -0.276113
    23  C   -0.923995   0.130061  -0.164376  -3.572919   9.789964   0.491701
    24  N    0.484903  -0.265139  -0.102662  -0.276113   0.491701   6.605569
    25  H    0.015845  -0.004189   0.285667  -0.004361   0.014980   0.004082
    26  H    0.315157   0.013095   0.030593  -0.036916   0.039593  -0.046317
    27  H    0.140628   0.165968   0.003870  -0.015900   0.013379   0.003296
    28  H    0.013561  -0.016075   0.004299   0.166486   0.139727   0.003255
    29  H    0.039789  -0.037101   0.030555   0.012642   0.315639  -0.046271
    30  C   -0.000001  -0.000000   0.000000  -0.000000   0.000000   0.000000
    31  C   -0.000001  -0.000001   0.000000  -0.000000  -0.000000   0.000001
    32  C    0.000001   0.000000  -0.000000   0.000000  -0.000001  -0.000001
    33  O    0.000000   0.000000  -0.000000  -0.000000  -0.000001  -0.000000
    34  C    0.000023  -0.000009   0.000001   0.000001   0.000057   0.000006
    35  C   -0.000048  -0.000020   0.000000  -0.000009  -0.000026   0.000037
    36  C    0.000012   0.000004  -0.000000   0.000002   0.000013  -0.000007
    37  O    0.000000  -0.000001   0.000000  -0.000000  -0.000000   0.000002
    38  H    0.000000   0.000000  -0.000000   0.000000  -0.000000  -0.000000
    39  H   -0.000000  -0.000000  -0.000000   0.000000   0.000000   0.000000
    40  H   -0.000000  -0.000000  -0.000000   0.000000   0.000000  -0.000000
    41  H    0.000000  -0.000000   0.000000   0.000000   0.000000   0.000000
    42  H   -0.000000  -0.000000  -0.000000   0.000000  -0.000000   0.000000
    43  H   -0.000000   0.000000  -0.000000  -0.000000  -0.000000   0.000000
    44  H   -0.000002  -0.000000  -0.000000  -0.000000  -0.000001   0.000000
    45  H   -0.000000  -0.000000   0.000000   0.000000   0.000000   0.000000
    46  H   -0.000000  -0.000000   0.000000   0.000000   0.000000   0.000000
    47  H    0.000000   0.000000  -0.000000   0.000000  -0.000000  -0.000000
    48  C   -0.000047   0.000064  -0.000007   0.000166   0.000427  -0.000430
    49  O   -0.000031   0.000004  -0.000001   0.000003  -0.000060  -0.000096
    50  O   -0.000002  -0.000001   0.000000  -0.000000   0.000003   0.000003
              25         26         27         28         29         30
     1  Zn   0.000750  -0.010881   0.002970   0.002930  -0.011013  -0.000003
     2  O    0.000004  -0.003551   0.000418   0.000011   0.000363   0.000001
     3  O    0.000000  -0.000006   0.000001   0.000000   0.000001   0.000005
     4  O   -0.000000   0.000290   0.000006   0.000006   0.000291  -0.000008
     5  O   -0.000000  -0.000000   0.000000   0.000000   0.000000  -0.000023
     6  C   -0.000002   0.003460   0.000344   0.000019   0.000380  -0.000063
     7  C    0.000002   0.000005   0.000006   0.000006   0.000025   0.000047
     8  Zn   0.000002  -0.000358  -0.000020  -0.000020  -0.000397  -0.000084
     9  O    0.000000   0.000001   0.000000   0.000001  -0.000016   0.000000
    10  O    0.000004   0.000362   0.000011   0.000417  -0.003593   0.000000
    11  O   -0.000000   0.000001   0.000000   0.000000   0.000001   0.000000
    12  O   -0.000000   0.000328   0.000006   0.000006   0.000332   0.000000
    13  C   -0.000002   0.000381   0.000018   0.000345   0.003474  -0.000002
    14  C    0.000000   0.000119   0.000005   0.000005   0.000122  -0.000001
    15  H    0.000000  -0.000003   0.000000   0.000000   0.000000  -0.000001
    16  H   -0.000000  -0.000000   0.000000   0.000000  -0.000000   0.000004
    17  H    0.000000   0.000000   0.000000   0.000000  -0.000003   0.000000
    18  H   -0.000000  -0.000000   0.000000   0.000000  -0.000000   0.000000
    19  C    0.015845   0.315157   0.140628   0.013561   0.039789  -0.000001
    20  C   -0.004189   0.013095   0.165968  -0.016075  -0.037101  -0.000000
    21  C    0.285667   0.030593   0.003870   0.004299   0.030555   0.000000
    22  C   -0.004361  -0.036916  -0.015900   0.166486   0.012642  -0.000000
    23  C    0.014980   0.039593   0.013379   0.139727   0.315639   0.000000
    24  N    0.004082  -0.046317   0.003296   0.003255  -0.046271   0.000000
    25  H    0.552622  -0.000144  -0.005299  -0.005301  -0.000144  -0.000000
    26  H   -0.000144   0.502468  -0.003790   0.000015  -0.000169   0.000000
    27  H   -0.005299  -0.003790   0.549408  -0.000118   0.000015   0.000000
    28  H   -0.005301   0.000015  -0.000118   0.549635  -0.003792   0.000000
    29  H   -0.000144  -0.000169   0.000015  -0.003792   0.502969   0.000000
    30  C   -0.000000   0.000000   0.000000   0.000000   0.000000   5.131074
    31  C   -0.000000   0.000000   0.000000   0.000000   0.000000   0.220709
    32  C    0.000000   0.000000  -0.000000   0.000000  -0.000000   0.172909
    33  O   -0.000000  -0.000000   0.000000   0.000000   0.000000  -0.026811
    34  C    0.000000   0.000000   0.000000   0.000000  -0.000000  -0.037755
    35  C   -0.000000   0.000000   0.000000   0.000000   0.000000   0.010316
    36  C    0.000000  -0.000000  -0.000000  -0.000000  -0.000000  -0.013436
    37  O   -0.000000   0.000000   0.000000   0.000000   0.000000   0.000450
    38  H    0.000000  -0.000000   0.000000   0.000000   0.000000   0.419167
    39  H    0.000000   0.000000   0.000000   0.000000   0.000000   0.436388
    40  H    0.000000  -0.000000  -0.000000   0.000000   0.000000   0.006428
    41  H    0.000000   0.000000   0.000000   0.000000   0.000000  -0.033723
    42  H    0.000000   0.000000   0.000000   0.000000   0.000000   0.028351
    43  H    0.000000   0.000000   0.000000   0.000000   0.000000   0.003189
    44  H   -0.000000  -0.000000   0.000000   0.000000   0.000000   0.001608
    45  H    0.000000   0.000000   0.000000   0.000000  -0.000000   0.000968
[...]
 ,0.05396741,0.,0.,0.,0.,0.,0.,-0.00012102,0.00004752,0.00008309,0.,0.,
 0.,-0.00031719,0.00006623,-0.00006530,0.,0.,0.,0.,0.,0.,0.00045892,0.0
 0012684,-0.00012917,-0.00011456,-0.00010171,-0.00002708,0.,0.,0.,-0.00
 011630,-0.00009033,0.00009850,0.,0.,0.,0.,0.,0.,0.,0.,0.,0.,0.,0.,0.,0
 .,0.,0.,0.,0.,0.,0.,0.,0.,0.,0.,0.,0.,0.,0.,0.,0.,0.,0.,0.,0.,0.,0.,0.
 ,0.,0.,0.,0.,0.,0.,0.,0.,0.,0.,0.,0.,0.,0.,0.,0.,0.,-0.00000775,-0.000
 00932,0.00001100,0.00015032,0.00000740,-0.00009116,-0.00059530,-0.0002
 3436,0.00012991,0.00031080,0.00049209,0.00002146,0.00316230,-0.0006531
 4,-0.00094064,-0.26347068,0.09414277,-0.03477718,-0.01378609,0.0077829
 9,-0.00518520,-0.01503827,0.00135651,0.01176566,-0.00002259,0.00002701
 ,-0.00000431,0.00001386,-0.00001649,-0.00000176,-0.00000915,-0.0000085
 2,-0.00000680,-0.00053227,-0.00125939,0.00028966,0.00010282,-0.0000256
 9,0.00004209,0.00006039,0.00086397,-0.00038421,0.00066291,-0.00146282,
 -0.00002136,0.28804169,0.,0.,0.,0.,0.,0.,0.00003853,-0.00000822,-0.000
 02053,0.,0.,0.,0.00003891,0.00003381,0.00005550,0.,0.,0.,0.,0.,0.,-0.0
 0013599,-0.00003453,-0.00001463,0.00001981,0.00001272,0.00002397,0.,0.
 ,0.,0.00004777,0.00002012,-0.00002699,0.,0.,0.,0.,0.,0.,0.,0.,0.,0.,0.
 ,0.,0.,0.,0.,0.,0.,0.,0.,0.,0.,0.,0.,0.,0.,0.,0.,0.,0.,0.,0.,0.,0.,0.,
 0.,0.,0.,0.,0.,0.,0.,0.,0.,0.,0.,0.,0.,0.,0.,0.,0.,0.,0.,0.,0.00008300
 ,0.00010058,0.00011373,-0.00041035,0.00030622,-0.00021774,0.00041650,-
 0.00137897,0.00013272,-0.00105483,0.00360166,-0.00130702,0.02987505,-0
 .01253611,0.00516195,0.09634121,-0.09791040,0.01570390,-0.01902067,0.0
 0953797,-0.00541574,-0.00001216,0.00504313,-0.00162149,0.00008804,-0.0
 0003292,-0.00000908,-0.00002288,0.00001324,-0.00000880,0.00002156,-0.0
 0002049,0.00001579,-0.00138591,0.00007438,0.00027418,-0.00002025,0.000
 22000,0.00000801,-0.00057424,0.00038920,0.00016540,-0.00070848,-0.0049
 1624,0.00253780,-0.10100592,0.09983623,0.,0.,0.,0.,0.,0.,0.00014533,-0
 .00006870,-0.00004883,0.,0.,0.,0.00022760,-0.00014128,0.00027472,0.,0.
 ,0.,0.,0.,0.,-0.00077587,-0.00007039,-0.00005692,0.00010237,0.00005617
 ,0.00007867,0.,0.,0.,0.00022165,0.00010832,-0.00012232,0.,0.,0.,0.,0.,
 0.,0.,0.,0.,0.,0.,0.,0.,0.,0.,0.,0.,0.,0.,0.,0.,0.,0.,0.,0.,0.,0.,0.,0
 .,0.,0.,0.,0.,0.,0.,0.,0.,0.,0.,0.,0.,0.,0.,0.,0.,0.,0.,0.,0.,0.,0.,0.
 ,0.,0.,-0.00001011,-0.00001681,-0.00004782,0.00015053,-0.00014260,0.00
 007595,-0.00025903,0.00017888,0.00023802,0.00152694,-0.00079275,0.0002
 4952,-0.01323000,0.00433245,0.00163152,-0.04049302,0.01713881,-0.05067
 463,-0.01557677,0.00756082,-0.00433595,0.04179629,-0.00626611,-0.01036
 965,-0.00002970,0.00001894,0.00000539,0.00001324,0.00000236,-0.0000047
 4,-0.00002723,-0.00003398,-0.00003847,0.00044349,0.00007757,0.00022312
 ,-0.00000645,0.00006090,-0.00005952,0.00014728,-0.00081251,0.00025692,
 0.00059825,0.00222946,-0.00057114,0.02858842,-0.01530142,0.06495072,0.
 ,0.,0.,0.,0.,0.,-0.00007897,0.00003103,0.00006066,0.,0.,0.,-0.00033149
 ,0.00003118,0.00001117,0.,0.,0.,0.,0.,0.,0.00036556,0.00013743,-0.0001
 1533,-0.00004903,-0.00010724,-0.00008349,0.,0.,0.,-0.00009741,-0.00006
 189,0.00005418,0.,0.,0.,0.,0.,0.,0.,0.,0.,0.,0.,0.,0.,0.,0.,0.,0.,0.,0
 .,0.,0.,0.,0.,0.,0.,0.,0.,0.,0.,0.,0.,0.,0.,0.,0.,0.,0.,0.,0.,0.,0.,0.
 ,0.,0.,0.,0.,0.,0.,0.,0.,0.,0.,0.,0.,-0.00000283,0.00000513,0.00000393
 ,-0.00003252,0.00001747,-0.00000862,0.00021752,-0.00015820,0.00002676,
 -0.00060732,-0.00050248,-0.00000192,-0.00055273,0.00049007,-0.00051353
 ,0.01213473,-0.01258044,-0.01093824,-0.11583526,0.09063062,0.07201110,
 0.00072421,-0.00134880,-0.00511984,0.00000601,-0.00000573,-0.00000137,
 -0.00000152,0.00000016,0.00000016,0.00000659,-0.00000053,0.00000186,-0
 .00003185,0.00004884,0.00000138,-0.00003698,0.00000021,0.00001654,0.00
 000398,-0.00016159,0.00010103,0.00008294,-0.00001360,-0.00011542,0.001
 31659,0.00038915,0.00000095,0.12289431,0.,0.,0.,0.,0.,0.,0.00000288,0.
 00000972,-0.00001878,0.,0.,0.,0.00008356,0.00006898,-0.00009201,0.,0.,
 0.,0.,0.,0.,0.00020799,-0.00003676,0.00001426,0.00000739,0.00000703,-0
 .00001091,0.,0.,0.,-0.00003149,-0.00001766,0.00001148,0.,0.,0.,0.,0.,0
 .,0.,0.,0.,0.,0.,0.,0.,0.,0.,0.,0.,0.,0.,0.,0.,0.,0.,0.,0.,0.,0.,0.,0.
 ,0.,0.,0.,0.,0.,0.,0.,0.,0.,0.,0.,0.,0.,0.,0.,0.,0.,0.,0.,0.,0.,0.,0.,
 0.,0.,-0.00001364,0.00000160,-0.00001573,-0.00007789,0.00002323,0.0000
 4151,0.00027935,-0.00016896,-0.00017912,-0.00073537,-0.00043394,0.0003
 6425,-0.00051352,0.00015400,-0.00131726,0.01087246,-0.00797486,-0.0067
 6405,0.09546963,-0.17931219,-0.11086734,-0.00014430,-0.00034780,-0.001
 89573,0.00000774,-0.00001309,0.00000152,-0.00000273,-0.00000147,0.0000
 0325,0.00001442,0.00000310,0.00000883,-0.00003686,0.00004590,-0.000021
 59,-0.00003803,-0.00003137,0.00005367,-0.00005647,-0.00025872,0.000338
 06,-0.00013316,0.00038333,-0.00002995,-0.00012891,0.00132767,0.0002567
 0,-0.09508859,0.18239023,0.,0.,0.,0.,0.,0.,0.00010157,-0.00004774,-0.0
 0002479,0.,0.,0.,0.00012564,-0.00015793,0.00024136,0.,0.,0.,0.,0.,0.,-
 0.00065682,-0.00001855,0.00003238,0.00009113,0.00005663,0.00004886,0.,
 0.,0.,0.00015517,0.00009212,-0.00008869,0.,0.,0.,0.,0.,0.,0.,0.,0.,0.,
 0.,0.,0.,0.,0.,0.,0.,0.,0.,0.,0.,0.,0.,0.,0.,0.,0.,0.,0.,0.,0.,0.,0.,0
 .,0.,0.,0.,0.,0.,0.,0.,0.,0.,0.,0.,0.,0.,0.,0.,0.,0.,0.,0.,0.,-0.00000
 427,0.00000826,0.00000473,-0.00001864,0.00001353,-0.00000416,0.0001427
 0,-0.00007308,-0.00000192,-0.00002828,-0.00048036,0.00010630,-0.001144
 54,0.00048953,-0.00119719,0.00596973,-0.00933994,-0.00656189,0.0710297
 4,-0.09890143,-0.13304365,-0.00105018,-0.00168870,-0.00155831,0.000005
 19,-0.00000370,-0.00000019,-0.00000040,-0.00000126,0.00000090,0.000008
 36,-0.00000054,0.00000291,-0.00003467,0.00000506,-0.00000463,-0.000025
 90,-0.00000052,0.00001468,-0.00004858,-0.00007374,0.00015708,0.0002765
 2,-0.00006663,0.00004517,0.00006565,0.00043392,0.00078294,-0.08404722,
 0.10888398,0.15218753,0.,0.,0.,0.,0.,0.,-0.00004211,0.00001567,-0.0000
 3134,0.,0.,0.,0.00029704,-0.00011985,-0.00031409,0.,0.,0.,0.,0.,0.,0.0
 0037040,-0.00002876,0.00018323,0.00000502,0.00004717,-0.00004611,0.,0.
 ,0.,-0.00008831,-0.00003583,0.00003124,0.,0.,0.,0.,0.,0.,0.,0.,0.,0.,0
 .,0.,0.,0.,0.,0.,0.,0.,0.,0.,0.,0.,0.,0.,0.,0.,0.,0.,0.,0.,0.,0.,0.,0.
 ,0.,0.,0.,0.,0.,0.,0.,0.,0.,0.,0.,0.,0.,0.,0.,0.,0.,0.,0.,0.,0.0000025
 7,-0.00001159,-0.00000374,0.00009541,-0.00005137,0.00000308,-0.0002792
 5,0.00036010,0.00002501,0.00060358,-0.00011396,0.00037526,0.00073762,0
 .00185034,-0.00118370,-0.01518656,0.00813800,-0.00723186,-0.17831350,0
 .09652704,-0.09835989,0.00093091,0.00096098,-0.00145361,-0.00001395,0.
 00001425,0.00000216,0.00000046,-0.00000438,0.00000204,-0.00000296,0.00
 001437,0.00000569,0.00009416,-0.00013193,0.00000232,0.00001182,-0.0000
 7314,0.00001122,-0.00036417,-0.00021147,0.00052563,0.00029955,-0.00080
 391,0.00005539,-0.00076185,-0.00258403,-0.00222977,-0.00818948,0.00685
 402,-0.00841288,0.18619347,0.,0.,0.,0.,0.,0.,-0.00012102,0.00004534,0.
 00002455,0.,0.,0.,-0.00019967,0.00001639,-0.00031753,0.,0.,0.,0.,0.,0.
 ,0.00067388,0.00006780,0.00008983,-0.00007457,-0.00003898,-0.00013482,
 0.,0.,0.,-0.00019576,-0.00008387,0.00008262,0.,0.,0.,0.,0.,0.,0.,0.,0.
 ,0.,0.,0.,0.,0.,0.,0.,0.,0.,0.,0.,0.,0.,0.,0.,0.,0.,0.,0.,0.,0.,0.,0.,
 0.,0.,0.,0.,0.,0.,0.,0.,0.,0.,0.,0.,0.,0.,0.,0.,0.,0.,0.,0.,0.,0.,-0.0
 0000425,-0.00000723,-0.00000391,0.00005595,-0.00004785,0.00001661,-0.0
 0024203,0.00004046,0.00006941,0.00071673,0.00026088,0.00041275,-0.0016
 6861,0.00061955,-0.00080845,-0.01492307,0.01255912,-0.00950743,0.09274
 707,-0.11838360,0.06142377,0.00131499,0.00106086,-0.00053406,-0.000009
 24,0.00000697,0.00000250,0.00000136,-0.00000184,-0.00000034,-0.0000049
 6,0.00000842,-0.00000044,0.00014280,-0.00004300,-0.00003857,0.00000893
 ,-0.00002141,-0.00002043,0.00009126,0.00033029,0.00018282,0.00036371,-
 0.00001251,-0.00018654,-0.00233342,-0.00206555,-0.00222283,0.01550321,
 -0.00828516,0.01049630,-0.09459977,0.12712884,0.,0.,0.,0.,0.,0.,0.0000
 7352,-0.00005649,0.00005743,0.,0.,0.,-0.00043064,-0.00016714,0.0004695
 1,0.,0.,0.,0.,0.,0.,-0.00075790,0.00019529,-0.00022313,0.00010869,-0.0
 0003883,0.00005820,0.,0.,0.,0.00021059,0.00006261,-0.00008821,0.,0.,0.
 ,0.,0.,0.,0.,0.,0.,0.,0.,0.,0.,0.,0.,0.,0.,0.,0.,0.,0.,0.,0.,0.,0.,0.,
 0.,0.,0.,0.,0.,0.,0.,0.,0.,0.,0.,0.,0.,0.,0.,0.,0.,0.,0.,0.,0.,0.,0.,0
 .,0.,0.,0.,0.,0.00000767,-0.00000244,0.00001301,0.00007999,-0.00003106
 ,-0.00003855,-0.00016893,0.00016470,0.00010240,0.00039582,0.00007353,-
 0.00006141,0.00009460,0.00166964,0.00086533,-0.01208374,0.00638141,-0.
 00571409,-0.09160000,0.06021185,-0.11901145,-0.00015941,-0.00165178,0.
 00027605,-0.00000778,0.00001330,0.00000010,0.00000198,-0.00000559,0.00
 000079,-0.00000341,0.00000890,0.00000387,0.00006816,-0.00008804,-0.000
 01986,0.00001942,-0.00002862,0.00001324,-0.00006540,-0.00046962,0.0002
 2200,0.00013064,-0.00063363,-0.00009118,-0.00095954,-0.00132348,-0.000
 96591,0.01171567,-0.00949688,0.01235324,0.09966639,-0.07823709,0.13590
 377,0.,0.,0.,0.,0.,0.,0.00308885,-0.00189660,-0.00197719,0.,0.,0.,0.00
 738837,-0.00441135,0.00512540,0.,0.,0.,0.,0.,0.,-0.02199848,-0.0034423
 0,0.00830454,0.00363131,0.00261095,0.00168399,0.,0.,0.,0.00376401,0.00
 209349,-0.00279541,0.,0.,0.,0.,0.,0.,0.,0.,0.,0.,0.,0.,0.,0.,0.,0.,0.,
 0.,0.,0.,0.,0.,0.,0.,0.,0.,0.,0.,0.,0.,0.,0.,0.,0.,0.,0.,0.,0.,0.,0.,0
 .,0.,0.,0.,0.,0.,0.,0.,0.,0.,0.,0.,0.,0.,0.00031062,0.00020742,0.00023
 979,-0.00005697,-0.00019685,-0.00035190,-0.00287458,-0.00060042,0.0010
 0515,0.00318082,0.00177415,-0.00055036,-0.00116347,-0.00402636,-0.0050
 4113,-0.03234008,-0.01056928,0.04258897,0.00060173,0.01138637,0.015067
 45,-0.14715861,-0.09145410,0.01153525,0.00012733,0.00013366,0.00002371
 ,-0.00004662,-0.00001435,-0.00005255,-0.00012077,0.00000984,-0.0000013
 9,0.00003967,0.00023659,-0.00001241,0.00025878,0.00009215,-0.00037059,
 0.00148718,0.00257792,-0.00183906,0.00033224,-0.00022460,0.00062485,0.
 00105131,-0.00144857,-0.00158104,-0.00521062,-0.00499699,0.00431333,0.
 00037372,-0.00051754,-0.00064088,0.53235732,0.,0.,0.,0.,0.,0.,0.001100
 94,-0.00139053,-0.00061580,0.,0.,0.,0.00284226,-0.00352858,0.00084352,
 0.,0.,0.,0.,0.,0.,-0.01072778,0.00208805,0.00329759,0.00313510,0.00099
 526,0.00056329,0.,0.,0.,0.00207894,0.00072269,-0.00155531,0.,0.,0.,0.,
 0.,0.,0.,0.,0.,0.,0.,0.,0.,0.,0.,0.,0.,0.,0.,0.,0.,0.,0.,0.,0.,0.,0.,0
 .,0.,0.,0.,0.,0.,0.,0.,0.,0.,0.,0.,0.,0.,0.,0.,0.,0.,0.,0.,0.,0.,0.,0.
 ,0.,0.,0.,0.00027718,0.00013698,0.00017109,-0.00004202,-0.00014653,-0.
 00023675,-0.00215831,-0.00059874,0.00095130,0.00225553,0.00007328,-0.0
 0122848,-0.00262685,-0.00274748,-0.00389117,-0.01586986,-0.00467404,0.
 04683323,0.01933505,0.01885660,-0.00025628,-0.10072737,-0.17889491,-0.
 00829878,0.00009257,0.00010866,0.00001737,-0.00005048,0.00001489,-0.00
 005553,-0.00015781,0.00001297,-0.00002490,0.00000662,0.00027101,0.0000
 3257,0.00023016,0.00013385,-0.00036317,0.00133822,0.00245683,-0.001765
 33,0.00003062,-0.00053104,0.00131887,0.00468215,-0.00136455,-0.0098277
 1,-0.00469094,-0.00344203,0.00184478,-0.00490398,-0.00571774,0.0063811
 6,0.21995025,0.44192222,0.,0.,0.,0.,0.,0.,-0.00548900,0.00250258,0.001
 48216,0.,0.,0.,-0.00520639,0.00240723,-0.00922123,0.,0.,0.,0.,0.,0.,0.
 03239445,0.00352038,0.00326525,-0.00193085,-0.00172972,-0.00349822,0.,
 0.,0.,-0.00845289,-0.00466285,0.00476188,0.,0.,0.,0.,0.,0.,0.,0.,0.,0.
 ,0.,0.,0.,0.,0.,0.,0.,0.,0.,0.,0.,0.,0.,0.,0.,0.,0.,0.,0.,0.,0.,0.,0.,
 0.,0.,0.,0.,0.,0.,0.,0.,0.,0.,0.,0.,0.,0.,0.,0.,0.,0.,0.,0.,0.,-0.0002
 4916,-0.00017857,-0.00027951,-0.00003430,0.00015435,0.00057155,0.00239
 218,0.00012607,-0.00074912,-0.00420897,-0.00462074,-0.00027522,0.00350
 145,0.00272815,-0.00901433,0.02654016,0.02415673,-0.00633564,0.0296361
 6,0.01197474,-0.06563691,-0.01283758,-0.03481078,-0.10545037,-0.000100
 05,-0.00012237,-0.00001212,0.00004603,0.00004817,-0.00001055,0.0000170
 3,-0.00006930,-0.00007474,-0.00006986,-0.00000121,0.00013038,-0.000270
 05,0.00002695,0.00013754,0.00029074,0.00217828,-0.00095276,-0.00035167
 ,-0.00022183,0.00060983,0.00098838,-0.00031312,-0.00255613,-0.00358501
 ,-0.00010418,0.00058542,-0.00161866,-0.00428212,0.00289109,-0.31019760
 ,-0.05268296,0.89674280,0.,0.,0.,0.,0.,0.,-0.00372935,0.00210122,0.002
 03468,0.,0.,0.,-0.01314248,0.00648744,-0.00954173,0.,0.,0.,0.,0.,0.,-0
 .01244837,-0.00096898,-0.00190050,-0.00299052,-0.00237211,-0.00191425,
 0.,0.,0.,-0.00702478,-0.00463930,0.00529170,0.,0.,0.,0.,0.,0.,0.,0.,0.
 ,0.,0.,0.,0.,0.,0.,0.,0.,0.,0.,0.,0.,0.,0.,0.,0.,0.,0.,0.,0.,0.,0.,0.,
 0.,0.,0.,0.,0.,0.,0.,0.,0.,0.,0.,0.,0.,0.,0.,0.,0.,0.,0.,0.,0.,0.,-0.0
 0018393,-0.00013460,-0.00015732,0.00003080,0.00011377,0.00024575,0.001
 70666,0.00029724,-0.00062164,-0.00217621,-0.00154160,-0.00025859,-0.00
 045734,0.00370053,0.00379445,0.00527161,-0.00808223,-0.01124819,0.0064
 6591,-0.00000829,-0.00150857,-0.03739703,-0.03760818,0.05207980,-0.000
 07955,-0.00007996,-0.00001547,0.00002904,0.00001830,0.00002669,0.00005
 324,-0.00001565,-0.00001636,-0.00000516,-0.00011625,0.00003765,-0.0001
 2496,-0.00002955,0.00017766,-0.00049967,-0.00160504,0.00064304,-0.0001
 2549,0.00016032,-0.00029374,-0.00082175,0.00042222,0.00142196,0.000287
 88,0.00050245,0.00016911,-0.00128615,-0.00089326,0.00157951,-0.2530762
 0,-0.07722032,0.25398778,0.30234770,0.,0.,0.,0.,0.,0.,0.00029577,0.000
 67681,-0.00024490,0.,0.,0.,0.00307478,0.00081610,0.00145263,0.,0.,0.,0
 .,0.,0.,0.00065335,-0.00529336,-0.00042193,-0.00216791,-0.00045754,-0.
 00094375,0.,0.,0.,-0.00437216,-0.00100295,0.00258980,0.,0.,0.,0.,0.,0.
 ,0.,0.,0.,0.,0.,0.,0.,0.,0.,0.,0.,0.,0.,0.,0.,0.,0.,0.,0.,0.,0.,0.,0.,
 0.,0.,0.,0.,0.,0.,0.,0.,0.,0.,0.,0.,0.,0.,0.,0.,0.,0.,0.,0.,0.,0.,0.,0
 .,0.,-0.00010358,-0.00005018,-0.00007502,0.00000831,0.00005281,0.00011
 063,0.00080456,0.00017425,-0.00031259,-0.00095943,-0.00035710,0.000146
 79,0.00037872,0.00140647,0.00150665,-0.00249487,-0.00174479,-0.0106716
 5,-0.00367319,-0.00103695,-0.00207920,-0.04149698,-0.01218160,0.043186
 82,-0.00003350,-0.00004224,-0.00000704,0.00002170,-0.00000094,0.000013
 82,0.00004514,-0.00002014,-0.00000570,-0.00000195,-0.00007332,0.000014
 98,-0.00007224,-0.00002773,0.00009431,-0.00024839,-0.00078805,0.000447
 11,-0.00002405,0.00000438,-0.00028641,-0.00113739,0.00013022,0.0029292
 2,0.00048751,0.00043956,-0.00004264,0.00083881,0.00064805,-0.00090096,
 -0.07842852,-0.11932626,0.11082521,0.11551229,0.11396875,0.,0.,0.,0.,0
 .,0.,0.00379539,-0.00182510,-0.00083786,0.,0.,0.,-0.00095024,-0.000024
 67,0.00308449,0.,0.,0.,0.,0.,0.,-0.01195827,-0.00108273,-0.00505695,0.
 00080070,0.00065276,0.00177631,0.,0.,0.,0.00794379,0.00443903,-0.00399
 533,0.,0.,0.,0.,0.,0.,0.,0.,0.,0.,0.,0.,0.,0.,0.,0.,0.,0.,0.,0.,0.,0.,
 0.,0.,0.,0.,0.,0.,0.,0.,0.,0.,0.,0.,0.,0.,0.,0.,0.,0.,0.,0.,0.,0.,0.,0
 .,0.,0.,0.,0.,0.,0.,0.,0.,0.00019501,0.00013464,0.00019757,-0.00001372
 ,-0.00011184,-0.00037146,-0.00167011,-0.00024580,0.00059249,0.00255694
 ,0.00216017,0.00047851,-0.00070381,-0.00332870,-0.00055546,-0.00170383
 ,0.00124464,0.00763314,-0.00674579,-0.01239387,0.00392481,0.03528858,0
 .03046286,-0.00956212,0.00008030,0.00008769,0.00000992,-0.00003938,-0.
 00002650,-0.00000291,-0.00002424,0.00005038,0.00004810,0.00001918,0.00
 009588,-0.00008740,0.00014270,0.00000143,-0.00011937,0.00015335,0.0004
 2087,-0.00015291,0.00013385,-0.00000468,0.00007762,0.00073888,0.000036
 55,-0.00166638,0.00198770,0.00202619,-0.00252967,0.00125881,0.00160043
 ,-0.00165152,0.26049949,0.10954193,-0.50233162,-0.32072570,-0.13014681
 ,0.59381490,0.,0.,0.,0.,0.,0.,-0.00057046,0.00039844,0.00051589,0.,0.,
 0.,-0.00403043,0.00238728,-0.00025751,0.,0.,0.,0.,0.,0.,0.00275544,0.0
 0037614,-0.00153091,-0.00122404,-0.00089468,-0.00018123,0.,0.,0.,-0.00
 069392,-0.00048523,0.00059893,0.,0.,0.,0.,0.,0.,0.,0.,0.,0.,0.,0.,0.,0
 .,0.,0.,0.,0.,0.,0.,0.,0.,0.,0.,0.,0.,0.,0.,0.,0.,0.,0.,0.,0.,0.,0.,0.
 ,0.,0.,0.,0.,0.,0.,0.,0.,0.,0.,0.,0.,0.,0.,0.,0.,0.,-0.00010987,-0.000
 05741,-0.00011707,-0.00005005,0.00008414,0.00019967,0.00157131,-0.0000
 2786,-0.00045383,-0.00188313,-0.00335117,0.00041393,-0.00180835,0.0024
 8186,-0.00460923,-0.01827414,-0.03001499,0.01385141,-0.09428376,-0.042
 94563,0.02627333,-0.00020703,-0.03563431,-0.01399365,-0.00003369,-0.00
 005604,-0.00000632,0.00001508,0.00001521,0.00001075,0.00003318,-0.0000
 2326,-0.00001326,-0.00004509,0.00014781,0.00002136,-0.00017513,-0.0000
 0086,0.00010961,-0.00020050,0.00031583,0.00024875,-0.00020521,-0.00049
 783,0.00008487,0.00001587,0.00067516,-0.00089552,-0.00727105,-0.012218
 24,0.01317654,0.01471674,0.00399840,-0.00742908,-0.08511842,-0.0343025
 7,-0.00297838,0.01031136,0.01120399,0.03398324,0.18384625,0.,0.,0.,0.,
 0.,0.,0.00035788,0.00003663,-0.00005323,0.,0.,0.,0.00075487,0.00007210
 ,0.00081018,0.,0.,0.,0.,0.,0.,-0.00181134,-0.00123608,-0.00078929,-0.0
 0081370,0.00005599,0.00036844,0.,0.,0.,0.00039529,0.00042120,-0.000092
 71,0.,0.,0.,0.,0.,0.,0.,0.,0.,0.,0.,0.,0.,0.,0.,0.,0.,0.,0.,0.,0.,0.,0
 .,0.,0.,0.,0.,0.,0.,0.,0.,0.,0.,0.,0.,0.,0.,0.,0.,0.,0.,0.,0.,0.,0.,0.
 ,0.,0.,0.,0.,0.,0.,0.,0.,-0.00011144,-0.00002197,-0.00007334,-0.000124
 21,0.00009970,0.00010887,0.00166931,-0.00017337,-0.00047907,-0.0014869
 1,-0.00242623,0.00087334,-0.00336755,0.00092657,-0.00329827,-0.0179559
 4,-0.02830272,-0.00019432,-0.03395906,-0.11112747,0.02498216,-0.042131
 97,-0.03818756,-0.02935456,-0.00001183,-0.00005980,-0.00000645,0.00001
 372,-0.00000350,0.00002148,0.00007680,-0.00001067,0.00001564,-0.000070
 40,0.00018181,-0.00003949,-0.00018365,-0.00002585,0.00016284,-0.000141
 29,-0.00008095,0.00033822,0.00013495,0.00017953,-0.00008506,-0.0011068
 9,-0.00035363,0.00072708,0.00697393,0.01544795,-0.01140571,-0.01203331
 ,-0.00812699,0.01811558,-0.03931197,-0.14397332,-0.05827433,0.00545025
 ,0.02310042,-0.00356150,0.13880303,0.29337586,0.,0.,0.,0.,0.,0.,0.0023
 9837,-0.00098807,-0.00060786,0.,0.,0.,0.00203234,-0.00090614,0.0037019
 3,0.,0.,0.,0.,0.,0.,-0.01280113,-0.00168094,-0.00203191,0.00103488,0.0
 0087482,0.00149694,0.,0.,0.,0.00348736,0.00186696,-0.00164970,0.,0.,0.
 ,0.,0.,0.,0.,0.,0.,0.,0.,0.,0.,0.,0.,0.,0.,0.,0.,0.,0.,0.,0.,0.,0.,0.,
 0.,0.,0.,0.,0.,0.,0.,0.,0.,0.,0.,0.,0.,0.,0.,0.,0.,0.,0.,0.,0.,0.,0.,0
 .,0.,0.,0.,0.,0.00008759,0.00007716,0.00014032,0.00002533,-0.00005266,
 -0.00030231,-0.00069835,0.00015157,0.00014330,0.00190583,0.00224967,0.
 00133595,-0.00050002,-0.00248270,0.00182120,0.01145689,0.00641480,-0.0
 1569015,0.04056976,0.05073175,-0.12685076,-0.02641721,-0.04846036,-0.0
 0944897,0.00003710,0.00004577,0.00000443,-0.00002253,-0.00003676,0.000
 02552,0.00006010,0.00006385,0.00007997,-0.00000389,-0.00006414,-0.0001
 2651,0.00001637,-0.00009585,0.00007582,-0.00093354,-0.00124872,0.00116
 687,0.00015509,0.00019415,-0.00065692,-0.00024757,0.00090434,0.0027674
 2,0.01847207,0.01882948,-0.02155034,0.01879954,0.02183681,-0.02550721,
 -0.02454021,-0.09196933,-0.20181843,0.02758120,-0.01718934,-0.08392692
 ,-0.05816751,0.06120609,0.47694469\\0.,0.,0.,0.,0.,0.,0.,0.,0.,0.,0.,0
 .,0.,0.,0.,0.,0.,0.,0.,0.,0.,0.,0.,0.,0.,0.,0.,0.,0.,0.,0.,0.,0.,0.,0.
 ,0.,0.,0.,0.,0.,0.,0.,0.,0.,0.,0.,0.,0.,0.,0.,0.,0.,0.,0.,0.,0.,0.,0.,
 0.,0.,0.,0.,0.,0.,0.,0.,0.,0.,0.,0.,0.,0.,0.,0.,0.,0.,0.,0.,0.,0.,0.,0
 .,0.,0.,0.,0.,0.,0.00000004,0.00000005,-0.00000003,-0.00000003,-0.0000
 0004,0.00000003,0.,0.00000001,0.,-0.00000002,0.00000002,0.00000002,0.,
 0.,-0.00000001,0.,0.,0.,0.,0.,0.00000001,0.00000002,0.00000003,0.,0.00
 000001,0.00000002,0.,0.,0.,0.,0.,0.,0.,0.00000001,-0.00000004,0.,0.,0.
 ,0.,0.,0.,0.,-0.00000003,0.00000002,0.,0.00000003,-0.00000001,0.,0.000
 00002,-0.00000002,-0.00000001,-0.00000001,0.00000001,0.,0.,-0.00000001
 ,-0.00000001,-0.00000003,-0.00000001,0.00000003,-0.00000002,-0.0000000
 3,0.\\\@


 ROSE IS A RED
 TY COBB IS BLUE
 'CAUSE PETE JUST HIT
 NO. 4592.
 Job cpu time:       0 days 13 hours 49 minutes 59.5 seconds.
 Elapsed time:       0 days  0 hours 13 minutes 12.7 seconds.
 File lengths (MBytes):  RWF=   1533 Int=      0 D2E=      0 Chk=     33 Scr=      2
 Normal termination of Gaussian 16 at Tue Aug  1 08:12:13 2023.
