 Entering Gaussian System, Link 0=g16
 Input=paddle_new_AGE_TEABr_ro_CO2_opt_freq_reposition.com
 Output=paddle_new_AGE_TEABr_ro_CO2_opt_freq_reposition.log
 Initial command:
 /apps/applications/G16/g16.c01/l1.exe "/scratch/x2496a02/MOF_508/Gau-32451.inp" -scrdir="/scratch/x2496a02/MOF_508/"
 Default CPUs for threads: 0-39
 Default is to use a total of  40 processors:
                               40 via shared-memory
                                1 via Linda
 Entering Link 1 = /apps/applications/G16/g16.c01/l1.exe PID=     32453.
  
 Copyright (c) 1988-2019, Gaussian, Inc.  All Rights Reserved.
  
 This is part of the Gaussian(R) 16 program.  It is based on
 the Gaussian(R) 09 system (copyright 2009, Gaussian, Inc.),
 the Gaussian(R) 03 system (copyright 2003, Gaussian, Inc.),
 the Gaussian(R) 98 system (copyright 1998, Gaussian, Inc.),
 the Gaussian(R) 94 system (copyright 1995, Gaussian, Inc.),
 the Gaussian 92(TM) system (copyright 1992, Gaussian, Inc.),
 the Gaussian 90(TM) system (copyright 1990, Gaussian, Inc.),
 the Gaussian 88(TM) system (copyright 1988, Gaussian, Inc.),
 the Gaussian 86(TM) system (copyright 1986, Carnegie Mellon
 University), and the Gaussian 82(TM) system (copyright 1983,
 Carnegie Mellon University). Gaussian is a federally registered
 trademark of Gaussian, Inc.
  
 This software contains proprietary and confidential information,
 including trade secrets, belonging to Gaussian, Inc.
  
 This software is provided under written license and may be
 used, copied, transmitted, or stored only in accord with that
 written license.
  
 The following legend is applicable only to US Government
 contracts under FAR:
  
                    RESTRICTED RIGHTS LEGEND
  
 Use, reproduction and disclosure by the US Government is
 subject to restrictions as set forth in subparagraphs (a)
 and (c) of the Commercial Computer Software - Restricted
 Rights clause in FAR 52.227-19.
  
 Gaussian, Inc.
 340 Quinnipiac St., Bldg. 40, Wallingford CT 06492
  
  
 ---------------------------------------------------------------
 Warning -- This program may not be used in any manner that
 competes with the business of Gaussian, Inc. or will provide
 assistance to any competitor of Gaussian, Inc.  The licensee
 of this program is prohibited from giving any competitor of
 Gaussian, Inc. access to this program.  By using this program,
 the user acknowledges that Gaussian, Inc. is engaged in the
 business of creating and licensing software in the field of
 computational chemistry and represents and warrants to the
 licensee that it is not a competitor of Gaussian, Inc. and that
 it will not use this program in any manner prohibited above.
 ---------------------------------------------------------------
  

 Cite this work as:
 Gaussian 16, Revision C.01,
 M. J. Frisch, G. W. Trucks, H. B. Schlegel, G. E. Scuseria, 
 M. A. Robb, J. R. Cheeseman, G. Scalmani, V. Barone, 
 G. A. Petersson, H. Nakatsuji, X. Li, M. Caricato, A. V. Marenich, 
 J. Bloino, B. G. Janesko, R. Gomperts, B. Mennucci, H. P. Hratchian, 
 J. V. Ortiz, A. F. Izmaylov, J. L. Sonnenberg, D. Williams-Young, 
 F. Ding, F. Lipparini, F. Egidi, J. Goings, B. Peng, A. Petrone, 
 T. Henderson, D. Ranasinghe, V. G. Zakrzewski, J. Gao, N. Rega, 
 G. Zheng, W. Liang, M. Hada, M. Ehara, K. Toyota, R. Fukuda, 
 J. Hasegawa, M. Ishida, T. Nakajima, Y. Honda, O. Kitao, H. Nakai, 
 T. Vreven, K. Throssell, J. A. Montgomery, Jr., J. E. Peralta, 
 F. Ogliaro, M. J. Bearpark, J. J. Heyd, E. N. Brothers, K. N. Kudin, 
 V. N. Staroverov, T. A. Keith, R. Kobayashi, J. Normand, 
 K. Raghavachari, A. P. Rendell, J. C. Burant, S. S. Iyengar, 
 J. Tomasi, M. Cossi, J. M. Millam, M. Klene, C. Adamo, R. Cammi, 
 J. W. Ochterski, R. L. Martin, K. Morokuma, O. Farkas, 
 J. B. Foresman, and D. J. Fox, Gaussian, Inc., Wallingford CT, 2019.
 
 ******************************************
 Gaussian 16:  ES64L-G16RevC.01  3-Jul-2019
                 4-Jul-2023 
 ******************************************
 %nprocshared=20
 Will use up to   20 processors via shared memory.
 %mem=20GB
 %chk=paddle_new_AGE_TEABr_ro_CO2_opt_freq_reposition.chk
 Will use    4 GPUs:
 Thread  CPU   GPU
      0    0     0
      1   10     1
      2   11     2
      3   19     3
      4    1    -1
      5    2    -1
      6    3    -1
      7    4    -1
      8    5    -1
      9    6    -1
     10    7    -1
     11    8    -1
     12    9    -1
     13   12    -1
     14   13    -1
     15   14    -1
     16   15    -1
     17   16    -1
     18   17    -1
     19   18    -1
 SetGPE:  set environment variable "MP_BIND" = "yes"
 SetGPE:  set environment variable "MP_BLIST" = "0,10,11,19,1,2,3,4,5,6,7,8,9,12,13,14,15,16,17,18"
 Properties for Device   0
 Minimum vector length:                              32
 Maximum vector length:                            1024
 Number of SMPs:                                     80
 Maximum number of threads per SMP:                2048
 Number of ASync Engines:                             7
 Memory:                                           3193921536
 Properties for Device   1
 Minimum vector length:                              32
 Maximum vector length:                            1024
 Number of SMPs:                                     80
 Maximum number of threads per SMP:                2048
 Number of ASync Engines:                             7
 Memory:                                           3201261568
 Properties for Device   2
 Minimum vector length:                              32
 Maximum vector length:                            1024
 Number of SMPs:                                     80
 Maximum number of threads per SMP:                2048
 Number of ASync Engines:                             7
 Memory:                                           3201261568
 Properties for Device   3
 Minimum vector length:                              32
 Maximum vector length:                            1024
 Number of SMPs:                                     80
 Maximum number of threads per SMP:                2048
 Number of ASync Engines:                             7
 Memory:                                           3201261568
   2874529382 words of memory will be used on each GPU.
 ----------------------------------------------------------------------
 # opt=(calcall,tight,cartesian) freq b3lyp/gen nosymm scf=(qc,maxcycle
 =1024) pseudo=read
 ----------------------------------------------------------------------
 1/7=10,10=4,18=10,26=3,38=1/1,3;
 2/12=2,15=1,17=6,18=5,29=2,40=1/2;
 3/5=7,11=2,16=1,17=8,25=1,30=1,71=2,74=-5,140=1/1,2,3;
 4//1;
 5/5=2,7=1024,8=3,38=5/8;
 8/6=4,10=90,11=11/1;
 11/6=1,8=1,9=11,15=111,16=1,31=1/1,2,10;
 10/6=1,31=1/2;
 6/7=2,8=2,9=2,10=2,18=1,28=1/1;
 7/7=1,10=1,25=1,30=1/1,2,3,16;
 1/7=10,10=4,18=10,26=3/3(3);
 2/15=1,29=1/2;
 7/7=1,8=1,9=1,25=1,30=1,44=-1/16;
 99/12=1/99;
 2/15=1,29=1/2;
 3/5=7,6=1,11=2,16=1,17=8,25=1,30=1,71=2,74=-5,82=7,140=1/1,2,3;
 4/5=5,16=3,69=1/1;
 5/5=2,7=1024,8=3,38=5/8;
 8/6=4,10=90,11=11/1;
 11/6=1,8=1,9=11,15=111,16=1,31=1/1,2,10;
 10/6=1,31=1/2;
 7/7=1,10=1,25=1,30=1/1,2,3,16;
 1/7=10,10=4,18=10,26=3/3(-8);
 2/15=1,29=1/2;
 6/7=2,8=2,9=2,10=2,18=1,19=2,28=1/1;
 7/7=1,8=1,9=1,25=1,30=1,44=-1/16;
 99/12=1/99;
 -----------------------------------------------
 paddle_new_AGE_TEABr_ro_CO2_opt_freq_reposition
 -----------------------------------------------
 Symbolic Z-matrix:
 Charge =  0 Multiplicity = 1
 Zn                   -1   -4.69449  -2.52891   2.32632 
 O                    -1   -4.60002  -0.93173   3.63136 
 O                    0    -2.34244  -0.85659   3.54087 
 O                    -1   -3.7714   -1.27973   0.82823 
 O                    0    -1.52212  -1.10684   0.66989 
 C                    -1   -3.46123  -0.46882   3.94274 
 C                    -1   -2.70354  -0.84264   0.32124 
 Zn                   0    -1.14467  -2.43147   2.22343 
 O                    0    -2.28252  -3.99325   0.96886 
 O                    -1   -4.53935  -4.11556   1.01425 
 O                    0    -1.33169  -3.69329   3.80435 
 O                    -1   -3.59321  -3.69443   3.77059 
 C                    -1   -3.3849   -4.48478   0.64137 
 C                    -1   -2.46758  -4.0416    4.21874 
 H                    -1   -3.45541   0.38383   4.64232 
 H                    -1   -2.79074  -0.14615  -0.52756 
 H                    -1   -3.34703  -5.33554  -0.0595 
 H                    -1   -2.45197  -4.74051   5.06989 
 C                    -1   -7.53384  -1.75151   3.14439 
 C                    -1   -8.92519  -1.77977   3.20973 
 C                    -1   -9.61549  -2.73787   2.46521 
 C                    -1   -8.88946  -3.63544   1.68034 
 C                    -1   -7.49932  -3.5449    1.66652 
 N                    -1   -6.83449  -2.61908   2.38606 
 H                    -1   -10.70019  -2.78423   2.49611 
 H                    -1   -6.94295  -1.03037   3.70008 
 H                    -1   -9.44925  -1.06304   3.8329 
 H                    -1   -9.38507  -4.39575   1.08621 
 H                    -1   -6.88162  -4.21449   1.07654 
 C                    0     0.53259   1.38078   6.64039 
 C                    0     1.30661   1.36874   5.55127 
 C                    0     0.80599   1.16534   4.15025 
 O                    0     1.59587   0.17418   3.51882 
 C                    0     1.30166   0.0275    2.12719 
 C                    0     1.67277  -1.39421   1.68375 
 C                    0     1.64972  -1.53759   0.15423 
 O                    0     0.81494  -2.37128   2.1453 
 H                    0     0.94373   1.55938   7.63077 
 H                    0    -0.53753   1.19636   6.57734 
 H                    0     2.38207   1.52366   5.64292 
 H                    0     0.89146   2.12216   3.59724 
 H                    0    -0.25472   0.87161   4.15007 
 H                    0     1.86876   0.78275   1.5588 
 H                    0     0.2303    0.18328   1.94421 
 H                    0     2.70335  -1.58406   2.03986 
 H                    0     1.89785  -2.55748  -0.1285 
 H                    0     0.70083  -1.22413  -0.27715 
 N                    -1    9.32365   7.87859  -9.41833 
 C                    -1    8.77519   8.66629  -10.62748 
 C                    -1    7.27043   8.62289  -10.87255 
 H                    -1    9.31304   8.2707   -11.50121 
 H                    -1    9.07822   9.7019   -10.45098 
 H                    -1    7.10358   9.15702  -11.81342 
 H                    -1    6.88374   7.6137   -11.01372 
 H                    -1    6.68334   9.12889  -10.10025 
 C                    -1    8.3918    8.04929  -8.23166 
 C                    -1    8.83977   7.40494  -6.92222 
 H                    -1    7.42815   7.64083  -8.53166 
 H                    -1    8.26601   9.12853  -8.10365 
 H                    -1    8.06075   7.5952   -6.17719 
 H                    -1    8.95072   6.32106  -7.00604 
 H                    -1    9.77023   7.82471  -6.53281 
 C                    -1    10.68837   8.48329  -9.05489 
 C                    -1    11.65487   8.71425  -10.21454 
 H                    -1    11.12876   7.80114  -8.32636 
 H                    -1    10.46651   9.42567  -8.54406 
 H                    -1    12.64171   8.90747  -9.78094 
 H                    -1    11.73079   7.86425  -10.89914 
 H                    -1    11.37934   9.58313  -10.81558 
 C                    -1    9.55968   6.39601  -9.75557 
 C                    -1    8.33127   5.54396  -10.04222 
 H                    -1    10.11973   5.99722  -8.90738 
 H                    -1    10.18644   6.39166  -10.65626 
 H                    -1    8.68431   4.51032  -10.11399 
 H                    -1    7.56308   5.57545  -9.26272 
 H                    -1    7.89699   5.78487  -11.01342 
 Br                   0     3.05487  -0.42357  -0.85048 
 C                    0     2.11096  -4.06      3.10833 
 O                    0     1.93053  -4.62513   2.10012 
 O                    0     2.29139  -3.49488   4.11653 
 

 GradGradGradGradGradGradGradGradGradGradGradGradGradGradGradGradGradGrad
 Berny optimization.
 Initialization pass.
 No Z-matrix variables, so optimization will use Cartesian coordinates.
 Trust Radius=3.00D-01 FncErr=1.00D-07 GrdErr=1.00D-06 EigMax=2.50D+02 EigMin=1.00D-04
 Number of steps in this run=    250 maximum allowed number of steps=    480.
 GradGradGradGradGradGradGradGradGradGradGradGradGradGradGradGradGradGrad

 Symmetry turned off by external request.
 Stoichiometry    C24H39BrN2O12Zn2
 Framework group  C1[X(C24H39BrN2O12Zn2)]
 Deg. of freedom   234
 Full point group                 C1      NOp   1
                          Input orientation:                          
 ---------------------------------------------------------------------
 Center     Atomic      Atomic             Coordinates (Angstroms)
 Number     Number       Type             X           Y           Z
 ---------------------------------------------------------------------
      1         30           0       -4.694489   -2.528905    2.326317
      2          8           0       -4.600022   -0.931734    3.631360
      3          8           0       -2.342444   -0.856588    3.540868
      4          8           0       -3.771400   -1.279734    0.828231
      5          8           0       -1.522116   -1.106837    0.669887
      6          6           0       -3.461226   -0.468815    3.942742
      7          6           0       -2.703539   -0.842639    0.321243
      8         30           0       -1.144669   -2.431471    2.223426
      9          8           0       -2.282515   -3.993245    0.968859
     10          8           0       -4.539354   -4.115561    1.014246
     11          8           0       -1.331693   -3.693292    3.804351
     12          8           0       -3.593209   -3.694425    3.770586
     13          6           0       -3.384903   -4.484776    0.641370
     14          6           0       -2.467582   -4.041605    4.218740
     15          1           0       -3.455408    0.383834    4.642316
     16          1           0       -2.790739   -0.146153   -0.527563
     17          1           0       -3.347035   -5.335536   -0.059501
     18          1           0       -2.451967   -4.740511    5.069891
     19          6           0       -7.533844   -1.751514    3.144391
     20          6           0       -8.925190   -1.779770    3.209727
     21          6           0       -9.615492   -2.737870    2.465207
     22          6           0       -8.889458   -3.635442    1.680343
     23          6           0       -7.499316   -3.544901    1.666524
     24          7           0       -6.834486   -2.619084    2.386057
     25          1           0      -10.700185   -2.784227    2.496111
     26          1           0       -6.942948   -1.030371    3.700081
     27          1           0       -9.449248   -1.063042    3.832903
     28          1           0       -9.385065   -4.395750    1.086214
     29          1           0       -6.881618   -4.214494    1.076539
     30          6           0        0.532586    1.380780    6.640391
     31          6           0        1.306614    1.368736    5.551267
     32          6           0        0.805985    1.165342    4.150252
     33          8           0        1.595867    0.174182    3.518820
     34          6           0        1.301662    0.027495    2.127194
     35          6           0        1.672770   -1.394207    1.683749
     36          6           0        1.649718   -1.537590    0.154226
     37          8           0        0.814938   -2.371284    2.145298
     38          1           0        0.943729    1.559381    7.630768
     39          1           0       -0.537528    1.196357    6.577336
     40          1           0        2.382073    1.523662    5.642921
     41          1           0        0.891457    2.122165    3.597235
     42          1           0       -0.254717    0.871610    4.150068
     43          1           0        1.868764    0.782747    1.558796
     44          1           0        0.230304    0.183278    1.944205
     45          1           0        2.703354   -1.584055    2.039859
     46          1           0        1.897850   -2.557476   -0.128496
     47          1           0        0.700825   -1.224127   -0.277150
     48          7           0        9.323654    7.878593   -9.418327
     49          6           0        8.775192    8.666291  -10.627481
     50          6           0        7.270430    8.622886  -10.872553
     51          1           0        9.313044    8.270702  -11.501210
     52          1           0        9.078220    9.701899  -10.450984
     53          1           0        7.103577    9.157016  -11.813418
     54          1           0        6.883739    7.613699  -11.013723
     55          1           0        6.683343    9.128889  -10.100249
     56          6           0        8.391804    8.049291   -8.231660
     57          6           0        8.839774    7.404936   -6.922216
     58          1           0        7.428152    7.640829   -8.531655
     59          1           0        8.266006    9.128533   -8.103645
     60          1           0        8.060745    7.595195   -6.177194
     61          1           0        8.950718    6.321056   -7.006041
     62          1           0        9.770233    7.824714   -6.532814
     63          6           0       10.688373    8.483285   -9.054888
     64          6           0       11.654868    8.714255  -10.214541
     65          1           0       11.128756    7.801136   -8.326361
     66          1           0       10.466507    9.425674   -8.544057
     67          1           0       12.641714    8.907473   -9.780939
     68          1           0       11.730791    7.864246  -10.899138
     69          1           0       11.379340    9.583125  -10.815579
     70          6           0        9.559677    6.396005   -9.755568
     71          6           0        8.331274    5.543955  -10.042216
     72          1           0       10.119726    5.997221   -8.907378
     73          1           0       10.186439    6.391655  -10.656259
     74          1           0        8.684305    4.510323  -10.113993
     75          1           0        7.563082    5.575454   -9.262716
     76          1           0        7.896991    5.784870  -11.013421
     77         35           0        3.054866   -0.423572   -0.850484
     78          6           0        2.110964   -4.060005    3.108329
     79          8           0        1.930532   -4.625129    2.100124
     80          8           0        2.291395   -3.494881    4.116534
 ---------------------------------------------------------------------
 Rotational constants (GHZ):           0.0824085           0.0111983           0.0106094
 General basis read from cards:  (5D, 7F)
 ======================================================================================================
                                       Pseudopotential Parameters
 ======================================================================================================
  Center     Atomic      Valence      Angular      Power
  Number     Number     Electrons     Momentum     of R      Exponent        Coefficient   SO-Coeffient
 ======================================================================================================
    1         30           12
                                      F and up 
                                                     1      386.7379660      -18.00000000    0.00000000
                                                     2       72.8587359     -124.35274030    0.00000000
                                                     2       15.9066170      -30.66018220    0.00000000
                                                     2        4.3502340      -10.63589890    0.00000000
                                                     2        1.2842199       -0.76836230    0.00000000
                                      S - F
                                                     0       19.0867858        3.00000000    0.00000000
                                                     1        5.0231080       22.52342250    0.00000000
                                                     2        1.2701744       48.44659420    0.00000000
                                                     2        1.0671287      -44.55601190    0.00000000
                                                     2        0.9264190       12.99839580    0.00000000
                                      P - F
                                                     0       43.4927750        5.00000000    0.00000000
                                                     1       20.8692669       20.74355890    0.00000000
                                                     2       21.7118378       90.30271580    0.00000000
                                                     2        6.3616915       74.66103160    0.00000000
                                                     2        1.2291195        9.88944240    0.00000000
                                      D - F
                                                     2       13.5851800       -4.84903590    0.00000000
                                                     2        9.8373050        3.69133790    0.00000000
                                                     2        0.8373113       -0.50373190    0.00000000
    2          8
                                   No pseudopotential on this center.
    3          8
                                   No pseudopotential on this center.
    4          8
                                   No pseudopotential on this center.
    5          8
                                   No pseudopotential on this center.
    6          6
                                   No pseudopotential on this center.
    7          6
                                   No pseudopotential on this center.
    8         30           12
                                      F and up 
                                                     1      386.7379660      -18.00000000    0.00000000
                                                     2       72.8587359     -124.35274030    0.00000000
                                                     2       15.9066170      -30.66018220    0.00000000
                                                     2        4.3502340      -10.63589890    0.00000000
                                                     2        1.2842199       -0.76836230    0.00000000
                                      S - F
                                                     0       19.0867858        3.00000000    0.00000000
                                                     1        5.0231080       22.52342250    0.00000000
                                                     2        1.2701744       48.44659420    0.00000000
                                                     2        1.0671287      -44.55601190    0.00000000
                                                     2        0.9264190       12.99839580    0.00000000
                                      P - F
                                                     0       43.4927750        5.00000000    0.00000000
                                                     1       20.8692669       20.74355890    0.00000000
                                                     2       21.7118378       90.30271580    0.00000000
                                                     2        6.3616915       74.66103160    0.00000000
                                                     2        1.2291195        9.88944240    0.00000000
                                      D - F
                                                     2       13.5851800       -4.84903590    0.00000000
                                                     2        9.8373050        3.69133790    0.00000000
                                                     2        0.8373113       -0.50373190    0.00000000
    9          8
                                   No pseudopotential on this center.
   10          8
                                   No pseudopotential on this center.
   11          8
                                   No pseudopotential on this center.
   12          8
                                   No pseudopotential on this center.
   13          6
                                   No pseudopotential on this center.
   14          6
                                   No pseudopotential on this center.
   15          1
                                   No pseudopotential on this center.
   16          1
                                   No pseudopotential on this center.
   17          1
                                   No pseudopotential on this center.
   18          1
                                   No pseudopotential on this center.
   19          6
                                   No pseudopotential on this center.
   20          6
                                   No pseudopotential on this center.
   21          6
                                   No pseudopotential on this center.
   22          6
                                   No pseudopotential on this center.
   23          6
                                   No pseudopotential on this center.
   24          7
                                   No pseudopotential on this center.
   25          1
                                   No pseudopotential on this center.
   26          1
                                   No pseudopotential on this center.
   27          1
                                   No pseudopotential on this center.
   28          1
                                   No pseudopotential on this center.
   29          1
                                   No pseudopotential on this center.
   30          6
                                   No pseudopotential on this center.
   31          6
                                   No pseudopotential on this center.
   32          6
                                   No pseudopotential on this center.
   33          8
                                   No pseudopotential on this center.
   34          6
                                   No pseudopotential on this center.
   35          6
                                   No pseudopotential on this center.
   36          6
                                   No pseudopotential on this center.
   37          8
                                   No pseudopotential on this center.
   38          1
                                   No pseudopotential on this center.
   39          1
                                   No pseudopotential on this center.
   40          1
                                   No pseudopotential on this center.
   41          1
                                   No pseudopotential on this center.
   42          1
                                   No pseudopotential on this center.
   43          1
                                   No pseudopotential on this center.
   44          1
                                   No pseudopotential on this center.
   45          1
                                   No pseudopotential on this center.
   46          1
                                   No pseudopotential on this center.
   47          1
                                   No pseudopotential on this center.
   48          7
                                   No pseudopotential on this center.
   49          6
                                   No pseudopotential on this center.
   50          6
                                   No pseudopotential on this center.
   51          1
                                   No pseudopotential on this center.
   52          1
                                   No pseudopotential on this center.
   53          1
                                   No pseudopotential on this center.
   54          1
                                   No pseudopotential on this center.
   55          1
                                   No pseudopotential on this center.
   56          6
                                   No pseudopotential on this center.
   57          6
                                   No pseudopotential on this center.
   58          1
                                   No pseudopotential on this center.
   59          1
                                   No pseudopotential on this center.
   60          1
                                   No pseudopotential on this center.
   61          1
                                   No pseudopotential on this center.
   62          1
                                   No pseudopotential on this center.
   63          6
                                   No pseudopotential on this center.
   64          6
                                   No pseudopotential on this center.
   65          1
                                   No pseudopotential on this center.
   66          1
                                   No pseudopotential on this center.
   67          1
                                   No pseudopotential on this center.
   68          1
                                   No pseudopotential on this center.
   69          1
                                   No pseudopotential on this center.
   70          6
                                   No pseudopotential on this center.
   71          6
                                   No pseudopotential on this center.
   72          1
                                   No pseudopotential on this center.
   73          1
                                   No pseudopotential on this center.
   74          1
                                   No pseudopotential on this center.
   75          1
                                   No pseudopotential on this center.
   76          1
                                   No pseudopotential on this center.
   77         35
                                   No pseudopotential on this center.
   78          6
                                   No pseudopotential on this center.
   79          8
                                   No pseudopotential on this center.
   80          8
                                   No pseudopotential on this center.
 ======================================================================================================
   947 basis functions,  1654 primitive gaussians,   991 cartesian basis functions
   176 alpha electrons      176 beta electrons
       nuclear repulsion energy      5418.1561649580 Hartrees.
 NAtoms=   80 NActive=   80 NUniq=   80 SFac= 1.00D+00 NAtFMM=   60 NAOKFM=T Big=T
 Integral buffers will be    131072 words long.
 Raffenetti 2 integral format.
 Two-electron integral symmetry is turned off.
 One-electron integrals computed using PRISM.
   1 Symmetry operations used in ECPInt.
 ECPInt:  NShTT=   55278 NPrTT=  248328 LenC2=   28679 LenP2D=   78018.
 LDataN:  DoStor=T MaxTD1= 5 Len=  102
 NBasis=   947 RedAO= T EigKep=  7.04D-06  NBF=   947
 NBsUse=   947 1.00D-06 EigRej= -1.00D+00 NBFU=   947
 ExpMin= 3.50D-02 ExpMax= 5.74D+05 ExpMxC= 5.74D+03 IAcc=3 IRadAn=         5 AccDes= 0.00D+00
 Harris functional with IExCor=  402 and IRadAn=       5 diagonalized for initial guess.
 HarFok:  IExCor=  402 AccDes= 0.00D+00 IRadAn=         5 IDoV= 1 UseB2=F ITyADJ=14
 ICtDFT=  3500011 ScaDFX=  1.000000  1.000000  1.000000  1.000000
 FoFCou: FMM=F IPFlag=           0 FMFlag=      100000 FMFlg1=        2001
         NFxFlg=           0 DoJE=T BraDBF=F KetDBF=T FulRan=T
         wScrn=  0.000000 ICntrl=       500 IOpCl=  0 I1Cent=   200000004 NGrid=           0
         NMat0=    1 NMatS0=      1 NMatT0=    0 NMatD0=    1 NMtDS0=    0 NMtDT0=    0
 Symmetry not used in FoFCou.
 Gradient too large for Newton-Raphson -- use scaled steepest descent instead.
 Gradient too large for Newton-Raphson -- use scaled steepest descent instead.
     Accept linear search using points  2 and  3.
 Gradient too large for Newton-Raphson -- use scaled steepest descent instead.
     Accept linear search using points  2 and  3.
 Gradient too large for Newton-Raphson -- use scaled steepest descent instead.
     Accept linear search using points  1 and  2.
 Gradient too large for Newton-Raphson -- use scaled steepest descent instead.
     Accept linear search using points  2 and  3.
 Gradient too large for Newton-Raphson -- use scaled steepest descent instead.
     Accept linear search using points  1 and  2.
 LinEq1:  Iter=  0 NonCon=     1 RMS=1.51D-05 Max=1.93D-03 NDo=     1
 AX will form     1 AO Fock derivatives at one time.
 LinEq1:  Iter=  1 NonCon=     1 RMS=5.37D-06 Max=3.10D-04 NDo=     1
 LinEq1:  Iter=  2 NonCon=     1 RMS=3.55D-06 Max=2.01D-04 NDo=     1
 LinEq1:  Iter=  3 NonCon=     1 RMS=2.94D-06 Max=2.94D-04 NDo=     1
 LinEq1:  Iter=  4 NonCon=     1 RMS=1.77D-06 Max=9.33D-05 NDo=     1
 LinEq1:  Iter=  5 NonCon=     1 RMS=9.48D-07 Max=9.06D-05 NDo=     1
 LinEq1:  Iter=  6 NonCon=     1 RMS=6.99D-07 Max=7.33D-05 NDo=     1
 LinEq1:  Iter=  7 NonCon=     1 RMS=4.46D-07 Max=2.34D-05 NDo=     1
 LinEq1:  Iter=  8 NonCon=     1 RMS=3.94D-07 Max=2.81D-05 NDo=     1
 LinEq1:  Iter=  9 NonCon=     1 RMS=2.48D-07 Max=1.26D-05 NDo=     1
 LinEq1:  Iter= 10 NonCon=     1 RMS=1.40D-07 Max=6.19D-06 NDo=     1
 LinEq1:  Iter= 11 NonCon=     1 RMS=9.67D-08 Max=4.59D-06 NDo=     1
 LinEq1:  Iter= 12 NonCon=     1 RMS=6.02D-08 Max=2.63D-06 NDo=     1
 LinEq1:  Iter= 13 NonCon=     1 RMS=4.97D-08 Max=3.14D-06 NDo=     1
 LinEq1:  Iter= 14 NonCon=     1 RMS=2.36D-08 Max=9.72D-07 NDo=     1
 LinEq1:  Iter= 15 NonCon=     1 RMS=1.26D-08 Max=6.66D-07 NDo=     1
 LinEq1:  Iter= 16 NonCon=     1 RMS=9.26D-09 Max=5.22D-07 NDo=     1
 LinEq1:  Iter= 17 NonCon=     0 RMS=5.93D-09 Max=2.65D-07 NDo=     1
 Linear equations converged to 5.210D-08 5.210D-07 after    17 iterations.
     Accept linear search using points  1 and  2.
     Minimum is close to point  2 DX= -3.24D-04 DF= -2.73D-12 DXR=  3.24D-04 DFR=  9.45D-08 which will be used.
 LinEq1:  Iter=  0 NonCon=     1 RMS=4.58D-08 Max=6.42D-06 NDo=     1
 LinEq1:  Iter=  1 NonCon=     1 RMS=2.82D-08 Max=1.64D-06 NDo=     1
 LinEq1:  Iter=  2 NonCon=     1 RMS=1.75D-08 Max=9.14D-07 NDo=     1
 LinEq1:  Iter=  3 NonCon=     1 RMS=1.50D-08 Max=1.15D-06 NDo=     1
 LinEq1:  Iter=  4 NonCon=     1 RMS=8.01D-09 Max=4.29D-07 NDo=     1
 LinEq1:  Iter=  5 NonCon=     1 RMS=5.21D-09 Max=3.46D-07 NDo=     1
 LinEq1:  Iter=  6 NonCon=     1 RMS=2.95D-09 Max=1.43D-07 NDo=     1
 LinEq1:  Iter=  7 NonCon=     1 RMS=2.13D-09 Max=1.40D-07 NDo=     1
 LinEq1:  Iter=  8 NonCon=     1 RMS=1.68D-09 Max=1.11D-07 NDo=     1
 LinEq1:  Iter=  9 NonCon=     1 RMS=1.04D-09 Max=5.53D-08 NDo=     1
 LinEq1:  Iter= 10 NonCon=     1 RMS=6.78D-10 Max=7.09D-08 NDo=     1
 LinEq1:  Iter= 11 NonCon=     1 RMS=5.79D-10 Max=3.93D-08 NDo=     1
 LinEq1:  Iter= 12 NonCon=     1 RMS=3.95D-10 Max=2.57D-08 NDo=     1
 LinEq1:  Iter= 13 NonCon=     1 RMS=2.77D-10 Max=2.61D-08 NDo=     1
 LinEq1:  Iter= 14 NonCon=     1 RMS=1.49D-10 Max=1.73D-08 NDo=     1
 LinEq1:  Iter= 15 NonCon=     1 RMS=1.19D-10 Max=1.09D-08 NDo=     1
 LinEq1:  Iter= 16 NonCon=     1 RMS=5.66D-11 Max=2.84D-09 NDo=     1
 LinEq1:  Iter= 17 NonCon=     1 RMS=4.21D-11 Max=2.43D-09 NDo=     1
 LinEq1:  Iter= 18 NonCon=     1 RMS=3.47D-11 Max=1.93D-09 NDo=     1
 LinEq1:  Iter= 19 NonCon=     0 RMS=2.03D-11 Max=9.44D-10 NDo=     1
 Linear equations converged to 1.291D-10 1.291D-09 after    19 iterations.
 SCF Done:  E(RB3LYP) =  -4653.06261095     a.u. after    9 cycles
            Convg  =    0.1414D-08                    55 Fock formations.
              S**2 =  0.0000                  -V/T =  1.9820
 DoSCS=F DFT=T ScalE2(SS,OS)=  1.000000  1.000000
 Range of M.O.s used for correlation:     1   947
 NBasis=   947 NAE=   176 NBE=   176 NFC=     0 NFV=     0
 NROrb=    947 NOA=   176 NOB=   176 NVA=   771 NVB=   771

 **** Warning!!: The largest alpha MO coefficient is  0.84721604D+02


 **** Warning!!: The smallest alpha delta epsilon is  0.39344966D-01

   1 Symmetry operations used in ECPInt.
 ECPInt:  NShTT=   55278 NPrTT=  248328 LenC2=   28679 LenP2D=   78018.
 LDataN:  DoStor=T MaxTD1= 6 Len=  172
 Number of processors reduced to   4 by ecpmxn.
 Symmetrizing basis deriv contribution to polar:
 IMax=3 JMax=2 DiffMx= 0.00D+00
 G2DrvN: will do    81 centers at a time, making    1 passes.
 Calling FoFCou, ICntrl=  3107 FMM=T I1Cent=   0 AccDes= 0.00D+00.
 End of G2Drv F.D. properties file   721 does not exist.
 End of G2Drv F.D. properties file   722 does not exist.
 End of G2Drv F.D. properties file   788 does not exist.
          IDoAtm=00101001101000000000000000000111111111111111111000
          IDoAtm=000000000000000000000000001111
          Differentiating once with respect to electric field.
                with respect to dipole field.
          Differentiating once with respect to nuclear coordinates.
 CalDSu exits because no D1Ps are significant.
          There are    84 degrees of freedom in the 1st order CPHF.  IDoFFX=6 NUNeed=     3.
     84 vectors produced by pass  0 Test12= 1.62D-13 1.19D-09 XBig12= 3.74D+02 5.75D+00.
 AX will form    84 AO Fock derivatives at one time.
     84 vectors produced by pass  1 Test12= 1.62D-13 1.19D-09 XBig12= 1.61D+02 3.46D+00.
     84 vectors produced by pass  2 Test12= 1.62D-13 1.19D-09 XBig12= 2.45D+01 1.22D+00.
     84 vectors produced by pass  3 Test12= 1.62D-13 1.19D-09 XBig12= 2.52D+00 3.04D-01.
     84 vectors produced by pass  4 Test12= 1.62D-13 1.19D-09 XBig12= 1.28D-01 7.33D-02.
     84 vectors produced by pass  5 Test12= 1.62D-13 1.19D-09 XBig12= 2.40D-03 7.25D-03.
     62 vectors produced by pass  6 Test12= 1.62D-13 1.19D-09 XBig12= 7.24D-05 1.00D-03.
     21 vectors produced by pass  7 Test12= 1.62D-13 1.19D-09 XBig12= 7.32D-07 1.34D-04.
     10 vectors produced by pass  8 Test12= 1.62D-13 1.19D-09 XBig12= 1.21D-08 1.21D-05.
      3 vectors produced by pass  9 Test12= 1.62D-13 1.19D-09 XBig12= 1.97D-10 1.86D-06.
      3 vectors produced by pass 10 Test12= 1.62D-13 1.19D-09 XBig12= 3.12D-12 3.18D-07.
      3 vectors produced by pass 11 Test12= 1.62D-13 1.19D-09 XBig12= 4.33D-14 2.04D-08.
      3 vectors produced by pass 12 Test12= 1.62D-13 1.19D-09 XBig12= 5.32D-16 1.39D-09.
 InvSVY:  IOpt=1 It=  1 EMax= 2.49D-14
 Solved reduced A of dimension   609 with    84 vectors.
 Isotropic polarizability for W=    0.000000      404.84 Bohr**3.
 End of Minotr F.D. properties file   721 does not exist.
 End of Minotr F.D. properties file   722 does not exist.
 End of Minotr F.D. properties file   788 does not exist.

 **********************************************************************

            Population analysis using the SCF Density.

 **********************************************************************

 Alpha  occ. eigenvalues -- -482.58307 -61.66794 -56.23698 -56.23415 -56.23404
 Alpha  occ. eigenvalues --  -19.11922 -19.11768 -19.06669 -19.06151 -19.06145
 Alpha  occ. eigenvalues --  -19.05754 -19.05593 -19.05118 -19.05061 -19.04870
 Alpha  occ. eigenvalues --  -19.04826 -18.99434 -14.57790 -14.34485 -10.36586
 Alpha  occ. eigenvalues --  -10.36374 -10.36300 -10.35948 -10.30481 -10.30138
 Alpha  occ. eigenvalues --  -10.30061 -10.29880 -10.27248 -10.22449 -10.22189
 Alpha  occ. eigenvalues --  -10.22158 -10.21787 -10.21328 -10.21325 -10.20243
 Alpha  occ. eigenvalues --  -10.18933 -10.18932 -10.15847 -10.14578 -10.14162
 Alpha  occ. eigenvalues --  -10.13461 -10.13010 -10.12302  -8.43845  -6.45299
 Alpha  occ. eigenvalues --   -6.44293  -6.44280  -2.57284  -2.57005  -2.56995
 Alpha  occ. eigenvalues --   -2.56194  -2.56193  -1.12786  -1.04773  -1.00660
 Alpha  occ. eigenvalues --   -0.98727  -0.98234  -0.98186  -0.97746  -0.95175
 Alpha  occ. eigenvalues --   -0.94133  -0.91079  -0.90874  -0.90691  -0.90123
 Alpha  occ. eigenvalues --   -0.89804  -0.89742  -0.89446  -0.86529  -0.85618
 Alpha  occ. eigenvalues --   -0.79945  -0.78276  -0.77622  -0.76634  -0.75612
 Alpha  occ. eigenvalues --   -0.72344  -0.70204  -0.69942  -0.64572  -0.64275
 Alpha  occ. eigenvalues --   -0.64153  -0.62578  -0.62328  -0.62198  -0.60364
 Alpha  occ. eigenvalues --   -0.59807  -0.58460  -0.56317  -0.56125  -0.55736
 Alpha  occ. eigenvalues --   -0.55034  -0.54016  -0.53678  -0.53213  -0.52827
 Alpha  occ. eigenvalues --   -0.52657  -0.52568  -0.52078  -0.51985  -0.51530
 Alpha  occ. eigenvalues --   -0.51392  -0.51186  -0.50998  -0.50954  -0.50636
 Alpha  occ. eigenvalues --   -0.50603  -0.50374  -0.49995  -0.49905  -0.49797
 Alpha  occ. eigenvalues --   -0.49539  -0.49434  -0.48833  -0.48138  -0.47982
 Alpha  occ. eigenvalues --   -0.47884  -0.47414  -0.47315  -0.47074  -0.46604
 Alpha  occ. eigenvalues --   -0.45957  -0.45254  -0.42346  -0.42198  -0.42132
 Alpha  occ. eigenvalues --   -0.41616  -0.40765  -0.40490  -0.40273  -0.40160
 Alpha  occ. eigenvalues --   -0.39856  -0.39674  -0.39338  -0.39100  -0.38903
 Alpha  occ. eigenvalues --   -0.38343  -0.37973  -0.37831  -0.36953  -0.35530
 Alpha  occ. eigenvalues --   -0.35384  -0.35365  -0.35053  -0.34055  -0.33850
 Alpha  occ. eigenvalues --   -0.33752  -0.32083  -0.31520  -0.30700  -0.30576
 Alpha  occ. eigenvalues --   -0.29237  -0.28639  -0.27428  -0.26831  -0.25994
 Alpha  occ. eigenvalues --   -0.25757  -0.25599  -0.24792  -0.24277  -0.22385
 Alpha  occ. eigenvalues --   -0.22041  -0.21662  -0.21174  -0.20899  -0.20729
 Alpha  occ. eigenvalues --   -0.20592  -0.20421  -0.20226  -0.19975  -0.19876
 Alpha  occ. eigenvalues --   -0.19765  -0.19237  -0.18031  -0.17375  -0.14907
 Alpha  occ. eigenvalues --   -0.14132
 Alpha virt. eigenvalues --   -0.10197  -0.08511  -0.08412  -0.08241  -0.06254
 Alpha virt. eigenvalues --   -0.06142  -0.05100  -0.04819  -0.04449  -0.04269
 Alpha virt. eigenvalues --   -0.03064  -0.02594  -0.02375  -0.01735  -0.01174
 Alpha virt. eigenvalues --   -0.00995  -0.00780  -0.00736  -0.00420   0.00439
 Alpha virt. eigenvalues --    0.00727   0.01465   0.02136   0.02283   0.02328
 Alpha virt. eigenvalues --    0.02871   0.03306   0.03606   0.04320   0.04509
 Alpha virt. eigenvalues --    0.04850   0.04992   0.05547   0.05591   0.05650
 Alpha virt. eigenvalues --    0.06249   0.06475   0.06949   0.07211   0.07266
 Alpha virt. eigenvalues --    0.07372   0.07585   0.07590   0.07702   0.07939
 Alpha virt. eigenvalues --    0.08004   0.08156   0.08252   0.08810   0.08833
 Alpha virt. eigenvalues --    0.08866   0.08986   0.09329   0.09507   0.09646
 Alpha virt. eigenvalues --    0.09806   0.09970   0.10334   0.10429   0.10541
 Alpha virt. eigenvalues --    0.10709   0.10884   0.10952   0.11215   0.11397
 Alpha virt. eigenvalues --    0.11423   0.11554   0.11928   0.12377   0.12396
 Alpha virt. eigenvalues --    0.12504   0.12660   0.12888   0.12940   0.12969
 Alpha virt. eigenvalues --    0.13275   0.13390   0.13493   0.13800   0.14098
 Alpha virt. eigenvalues --    0.14262   0.14385   0.14482   0.14674   0.14802
 Alpha virt. eigenvalues --    0.14981   0.14996   0.15590   0.15749   0.15770
 Alpha virt. eigenvalues --    0.16178   0.16356   0.16369   0.16570   0.16743
 Alpha virt. eigenvalues --    0.16833   0.17111   0.17212   0.17454   0.17625
 Alpha virt. eigenvalues --    0.18020   0.18155   0.18415   0.18438   0.18929
 Alpha virt. eigenvalues --    0.19066   0.19197   0.19460   0.19678   0.19770
 Alpha virt. eigenvalues --    0.20064   0.20192   0.20278   0.20382   0.20447
 Alpha virt. eigenvalues --    0.20553   0.20744   0.20852   0.21279   0.21491
 Alpha virt. eigenvalues --    0.21619   0.22063   0.22390   0.22474   0.22543
 Alpha virt. eigenvalues --    0.22856   0.23513   0.23753   0.24203   0.24316
 Alpha virt. eigenvalues --    0.24516   0.24733   0.24808   0.25063   0.25132
 Alpha virt. eigenvalues --    0.25298   0.25800   0.26222   0.26459   0.26807
 Alpha virt. eigenvalues --    0.26876   0.26893   0.27439   0.27722   0.27794
 Alpha virt. eigenvalues --    0.27824   0.27955   0.28171   0.28372   0.29008
 Alpha virt. eigenvalues --    0.29131   0.29467   0.29858   0.29944   0.30048
 Alpha virt. eigenvalues --    0.30485   0.30698   0.30984   0.31184   0.31500
 Alpha virt. eigenvalues --    0.31642   0.31704   0.31972   0.32294   0.32351
 Alpha virt. eigenvalues --    0.32459   0.33339   0.33892   0.33963   0.34228
 Alpha virt. eigenvalues --    0.34230   0.34734   0.34893   0.35110   0.35476
 Alpha virt. eigenvalues --    0.35586   0.35729   0.36109   0.36199   0.37069
 Alpha virt. eigenvalues --    0.37345   0.37643   0.37946   0.38661   0.38782
 Alpha virt. eigenvalues --    0.38945   0.39412   0.39476   0.39538   0.39907
 Alpha virt. eigenvalues --    0.40459   0.40502   0.40645   0.41001   0.41170
 Alpha virt. eigenvalues --    0.41430   0.41841   0.41981   0.42542   0.42994
 Alpha virt. eigenvalues --    0.43235   0.43470   0.43718   0.44039   0.44583
 Alpha virt. eigenvalues --    0.44931   0.45087   0.45707   0.46361   0.46578
 Alpha virt. eigenvalues --    0.47201   0.47462   0.47663   0.47726   0.47898
 Alpha virt. eigenvalues --    0.48201   0.48359   0.48724   0.49002   0.49046
 Alpha virt. eigenvalues --    0.49407   0.49652   0.50142   0.50271   0.50542
 Alpha virt. eigenvalues --    0.51135   0.51309   0.51779   0.52121   0.52310
 Alpha virt. eigenvalues --    0.52584   0.52842   0.53407   0.54056   0.54115
 Alpha virt. eigenvalues --    0.54169   0.54812   0.55192   0.55658   0.55915
 Alpha virt. eigenvalues --    0.56103   0.56643   0.56817   0.57521   0.57690
 Alpha virt. eigenvalues --    0.57989   0.58438   0.58448   0.58632   0.59333
 Alpha virt. eigenvalues --    0.59390   0.59703   0.59811   0.60069   0.60760
 Alpha virt. eigenvalues --    0.60895   0.61089   0.61117   0.61606   0.62262
 Alpha virt. eigenvalues --    0.63004   0.63452   0.64138   0.64430   0.64669
 Alpha virt. eigenvalues --    0.65090   0.65207   0.67091   0.68124   0.68413
 Alpha virt. eigenvalues --    0.69050   0.69627   0.70115   0.70280   0.70903
 Alpha virt. eigenvalues --    0.72461   0.72637   0.73644   0.73682   0.74835
 Alpha virt. eigenvalues --    0.75445   0.75527   0.76490   0.76578   0.76726
 Alpha virt. eigenvalues --    0.77416   0.77816   0.78303   0.78356   0.79271
 Alpha virt. eigenvalues --    0.79536   0.80109   0.80186   0.80946   0.81132
 Alpha virt. eigenvalues --    0.81753   0.82090   0.82139   0.83090   0.83366
 Alpha virt. eigenvalues --    0.84214   0.84562   0.84708   0.85135   0.85272
 Alpha virt. eigenvalues --    0.86370   0.86604   0.87033   0.87207   0.87876
 Alpha virt. eigenvalues --    0.88108   0.88170   0.88739   0.89020   0.89579
 Alpha virt. eigenvalues --    0.89908   0.90799   0.90940   0.91926   0.92231
 Alpha virt. eigenvalues --    0.92776   0.92880   0.93417   0.93686   0.93916
 Alpha virt. eigenvalues --    0.94440   0.94555   0.95090   0.95645   0.96435
 Alpha virt. eigenvalues --    0.97078   0.97948   0.98362   0.98588   0.99416
 Alpha virt. eigenvalues --    0.99690   0.99782   0.99953   1.00603   1.00662
 Alpha virt. eigenvalues --    1.01225   1.01927   1.02379   1.02477   1.02496
 Alpha virt. eigenvalues --    1.03238   1.03545   1.03633   1.04108   1.04279
 Alpha virt. eigenvalues --    1.04745   1.04867   1.05826   1.06737   1.06752
 Alpha virt. eigenvalues --    1.07143   1.07266   1.07822   1.08983   1.09266
 Alpha virt. eigenvalues --    1.09559   1.10823   1.11547   1.11976   1.12449
 Alpha virt. eigenvalues --    1.12488   1.13349   1.13376   1.14071   1.15321
 Alpha virt. eigenvalues --    1.15609   1.17747   1.18749   1.18944   1.19634
 Alpha virt. eigenvalues --    1.20001   1.21365   1.21887   1.22179   1.22347
 Alpha virt. eigenvalues --    1.23082   1.23485   1.23698   1.24594   1.25190
 Alpha virt. eigenvalues --    1.25647   1.25749   1.25800   1.26728   1.27430
 Alpha virt. eigenvalues --    1.27771   1.28190   1.28325   1.28640   1.29803
 Alpha virt. eigenvalues --    1.30387   1.30674   1.30828   1.31467   1.31918
 Alpha virt. eigenvalues --    1.32561   1.33108   1.33719   1.34053   1.34511
 Alpha virt. eigenvalues --    1.35227   1.35259   1.35505   1.36165   1.36730
 Alpha virt. eigenvalues --    1.38282   1.38719   1.39897   1.40164   1.40465
 Alpha virt. eigenvalues --    1.40694   1.41101   1.41138   1.41740   1.42014
 Alpha virt. eigenvalues --    1.42134   1.42882   1.43838   1.43857   1.44243
 Alpha virt. eigenvalues --    1.44788   1.45196   1.45586   1.46005   1.46628
 Alpha virt. eigenvalues --    1.46763   1.47805   1.48804   1.49225   1.49394
 Alpha virt. eigenvalues --    1.49832   1.50160   1.50613   1.51015   1.51378
 Alpha virt. eigenvalues --    1.51764   1.51822   1.51908   1.52701   1.52900
 Alpha virt. eigenvalues --    1.53571   1.53778   1.54504   1.55139   1.55320
 Alpha virt. eigenvalues --    1.56504   1.56844   1.56941   1.57287   1.57468
 Alpha virt. eigenvalues --    1.58472   1.59020   1.60125   1.60265   1.61720
 Alpha virt. eigenvalues --    1.62030   1.63195   1.64089   1.64504   1.65302
 Alpha virt. eigenvalues --    1.65529   1.66475   1.67264   1.68151   1.68629
 Alpha virt. eigenvalues --    1.69255   1.69275   1.70022   1.70912   1.71215
 Alpha virt. eigenvalues --    1.71561   1.72080   1.73292   1.73677   1.74466
 Alpha virt. eigenvalues --    1.75152   1.76323   1.76750   1.77093   1.78231
 Alpha virt. eigenvalues --    1.78300   1.80124   1.80186   1.81310   1.81509
 Alpha virt. eigenvalues --    1.82439   1.82768   1.84654   1.84892   1.85373
 Alpha virt. eigenvalues --    1.85623   1.86087   1.86907   1.87085   1.87140
 Alpha virt. eigenvalues --    1.88165   1.88815   1.88986   1.90288   1.90615
 Alpha virt. eigenvalues --    1.90808   1.91152   1.91288   1.91403   1.91977
 Alpha virt. eigenvalues --    1.92253   1.92285   1.92538   1.92863   1.93302
 Alpha virt. eigenvalues --    1.93561   1.94144   1.94335   1.94378   1.94639
 Alpha virt. eigenvalues --    1.95853   1.96395   1.96632   1.97021   1.97318
 Alpha virt. eigenvalues --    1.97662   1.98297   1.98510   1.98769   1.98904
 Alpha virt. eigenvalues --    1.99245   1.99444   1.99452   2.00227   2.00313
 Alpha virt. eigenvalues --    2.00599   2.00643   2.01133   2.01144   2.01535
 Alpha virt. eigenvalues --    2.01783   2.02096   2.02748   2.02970   2.03463
 Alpha virt. eigenvalues --    2.03586   2.03973   2.04031   2.04124   2.04524
 Alpha virt. eigenvalues --    2.05074   2.05418   2.05548   2.06660   2.07134
 Alpha virt. eigenvalues --    2.07783   2.07965   2.08918   2.08930   2.09869
 Alpha virt. eigenvalues --    2.10313   2.10391   2.10433   2.10994   2.12178
 Alpha virt. eigenvalues --    2.12898   2.13020   2.13669   2.13738   2.14389
 Alpha virt. eigenvalues --    2.14436   2.14617   2.15607   2.16023   2.16131
 Alpha virt. eigenvalues --    2.16932   2.17338   2.17887   2.19229   2.19346
 Alpha virt. eigenvalues --    2.20114   2.20741   2.22012   2.22618   2.23138
 Alpha virt. eigenvalues --    2.23294   2.23985   2.24659   2.24802   2.25453
 Alpha virt. eigenvalues --    2.26321   2.27340   2.27824   2.28430   2.28679
 Alpha virt. eigenvalues --    2.29418   2.30903   2.31070   2.31271   2.31994
 Alpha virt. eigenvalues --    2.32440   2.32572   2.32681   2.32916   2.33224
 Alpha virt. eigenvalues --    2.33615   2.34050   2.34336   2.34991   2.35257
 Alpha virt. eigenvalues --    2.36051   2.36332   2.36678   2.37491   2.38053
 Alpha virt. eigenvalues --    2.38484   2.38975   2.39606   2.40187   2.40506
 Alpha virt. eigenvalues --    2.41297   2.41623   2.41706   2.41814   2.43210
 Alpha virt. eigenvalues --    2.43301   2.44613   2.45498   2.46030   2.49185
 Alpha virt. eigenvalues --    2.49896   2.50569   2.51084   2.51538   2.52572
 Alpha virt. eigenvalues --    2.54023   2.54546   2.55989   2.56587   2.56802
 Alpha virt. eigenvalues --    2.58181   2.58356   2.58467   2.59162   2.59511
 Alpha virt. eigenvalues --    2.59765   2.60435   2.60722   2.61359   2.61752
 Alpha virt. eigenvalues --    2.62245   2.62505   2.64459   2.64667   2.65385
 Alpha virt. eigenvalues --    2.65685   2.65995   2.66138   2.66188   2.67386
 Alpha virt. eigenvalues --    2.68024   2.68551   2.68859   2.69615   2.70778
 Alpha virt. eigenvalues --    2.70929   2.71383   2.72343   2.73072   2.73382
 Alpha virt. eigenvalues --    2.74247   2.74344   2.74855   2.75702   2.76650
 Alpha virt. eigenvalues --    2.76962   2.77233   2.77330   2.77890   2.78356
 Alpha virt. eigenvalues --    2.79164   2.79504   2.79637   2.80777   2.81256
 Alpha virt. eigenvalues --    2.81676   2.82160   2.82473   2.83290   2.85455
 Alpha virt. eigenvalues --    2.85764   2.87685   2.87714   2.89031   2.89562
 Alpha virt. eigenvalues --    2.89838   2.90450   2.90546   2.92313   2.93651
 Alpha virt. eigenvalues --    2.94625   2.96113   2.97524   2.99568   3.00503
 Alpha virt. eigenvalues --    3.01054   3.05151   3.06159   3.09545   3.10065
 Alpha virt. eigenvalues --    3.10213   3.11703   3.12281   3.12789   3.14252
 Alpha virt. eigenvalues --    3.14957   3.15007   3.15052   3.15446   3.15700
 Alpha virt. eigenvalues --    3.16153   3.16187   3.16680   3.17699   3.21082
 Alpha virt. eigenvalues --    3.22009   3.22625   3.23153   3.23343   3.23792
 Alpha virt. eigenvalues --    3.24412   3.24941   3.26637   3.28085   3.29240
 Alpha virt. eigenvalues --    3.30358   3.30464   3.31499   3.31890   3.33191
 Alpha virt. eigenvalues --    3.34267   3.34632   3.35899   3.37971   3.39056
 Alpha virt. eigenvalues --    3.39300   3.40216   3.41523   3.41842   3.42666
 Alpha virt. eigenvalues --    3.42848   3.43543   3.43798   3.45642   3.47159
 Alpha virt. eigenvalues --    3.50421   3.52153   3.52704   3.55849   3.55948
 Alpha virt. eigenvalues --    3.56241   3.57119   3.57371   3.59909   3.61111
 Alpha virt. eigenvalues --    3.66411   3.75101   3.94483   8.84927  11.40415
 Alpha virt. eigenvalues --   11.52723
          Condensed to atoms (all electrons):
 Mulliken charges:
               1
     1  Zn   0.754467
     2  O   -0.509000
     3  O   -0.470252
     4  O   -0.447149
     5  O   -0.500028
     6  C    0.422707
     7  C    0.482454
     8  Zn   0.420553
     9  O   -0.456808
    10  O   -0.519020
    11  O   -0.443584
    12  O   -0.464384
    13  C    0.445766
    14  C    0.439360
    15  H    0.060570
    16  H    0.065702
    17  H    0.066967
    18  H    0.070475
    19  C   -0.297816
    20  C    0.092475
    21  C   -0.569607
    22  C    0.066079
    23  C   -0.307666
    24  N    0.211261
    25  H    0.135518
    26  H    0.200186
    27  H    0.136824
    28  H    0.136847
    29  H    0.200607
    30  C   -0.320676
    31  C    0.096021
    32  C   -0.219175
    33  O   -0.290874
    34  C   -0.572547
    35  C    0.529436
    36  C   -0.174809
    37  O   -0.504887
    38  H    0.117223
    39  H    0.131753
    40  H    0.122283
    41  H    0.105760
    42  H    0.148432
    43  H    0.108118
    44  H    0.137206
    45  H    0.095512
    46  H    0.182369
    47  H    0.202608
    48  N   -0.711766
    49  C    0.078176
    50  C   -0.609552
    51  H    0.192240
    52  H    0.188895
    53  H    0.186936
    54  H    0.173336
    55  H    0.179771
    56  C    0.047422
    57  C   -0.559825
    58  H    0.194835
    59  H    0.192207
    60  H    0.195737
    61  H    0.177602
    62  H    0.174618
    63  C    0.119777
    64  C   -0.535311
    65  H    0.187704
    66  H    0.194620
    67  H    0.188933
    68  H    0.171456
    69  H    0.175691
    70  C    0.033382
    71  C   -0.542459
    72  H    0.186708
    73  H    0.183330
    74  H    0.191052
    75  H    0.176420
    76  H    0.168065
    77  Br  -0.351490
    78  C    0.612456
    79  O   -0.290960
    80  O   -0.287259
 Sum of Mulliken charges =   0.00000
 Mulliken charges with hydrogens summed into heavy atoms:
               1
     1  Zn   0.754467
     2  O   -0.509000
     3  O   -0.470252
     4  O   -0.447149
     5  O   -0.500028
     6  C    0.483277
     7  C    0.548156
     8  Zn   0.420553
     9  O   -0.456808
    10  O   -0.519020
    11  O   -0.443584
    12  O   -0.464384
    13  C    0.512733
    14  C    0.509835
    19  C   -0.097631
    20  C    0.229299
    21  C   -0.434089
    22  C    0.202926
    23  C   -0.107059
    24  N    0.211261
    30  C   -0.071699
    31  C    0.218304
    32  C    0.035017
    33  O   -0.290874
    34  C   -0.327224
    35  C    0.624948
    36  C    0.210167
    37  O   -0.504887
    48  N   -0.711766
    49  C    0.459311
    50  C   -0.069509
    56  C    0.434464
    57  C   -0.011868
    63  C    0.502101
    64  C    0.000769
    70  C    0.403419
    71  C   -0.006922
    77  Br  -0.351490
    78  C    0.612456
    79  O   -0.290960
    80  O   -0.287259
 Electronic spatial extent (au):  <R**2>=          94766.0362
 Charge=              0.0000 electrons
 Dipole moment (field-independent basis, Debye):
    X=             37.5846    Y=             46.6227    Z=            -54.4937  Tot=             80.9682
 Quadrupole moment (field-independent basis, Debye-Ang):
   XX=            179.6095   YY=             -2.9499   ZZ=            124.4687
   XY=            356.5646   XZ=           -427.4090   YZ=           -328.5089
 Traceless Quadrupole moment (field-independent basis, Debye-Ang):
   XX=             79.2334   YY=           -103.3260   ZZ=             24.0926
   XY=            356.5646   XZ=           -427.4090   YZ=           -328.5089
 Octapole moment (field-independent basis, Debye-Ang**2):
  XXX=           2989.9206  YYY=           2398.8046  ZZZ=          -4270.5352  XYY=           2618.4794
  XXY=           3113.5638  XXZ=          -3774.8527  XZZ=           3841.8491  YZZ=           3434.7030
  YYZ=          -2867.3714  XYZ=          -3265.1698
 Hexadecapole moment (field-independent basis, Debye-Ang**3):
 XXXX=          -5354.7595 YYYY=          -9822.5893 ZZZZ=           -682.0729 XXXY=          17767.1491
 XXXZ=         -21587.5196 YYYX=           6817.3659 YYYZ=          -7950.1378 ZZZX=         -21190.1357
 ZZZY=         -18072.2117 XXYY=          13238.0910 XXZZ=          22280.4790 YYZZ=          14966.0346
 XXYZ=         -26083.3196 YYXZ=         -20117.6360 ZZXY=          26039.7343
 N-N= 5.418156164958D+03 E-N=-2.202733057100D+04  KE= 4.738337794622D+03
  Exact polarizability:     466.527      27.066     355.957     -27.308      15.336     392.030
 Approx polarizability:     630.277      24.228     508.184     -31.639      31.502     546.343
   1 Symmetry operations used in ECPInt.
 ECPInt:  NShTT=   55278 NPrTT=  248328 LenC2=   28679 LenP2D=   78018.
 LDataN:  DoStor=T MaxTD1= 7 Len=  274
 Calling FoFJK, ICntrl=    100127 FMM=F ISym2X=0 I1Cent= 0 IOpClX= 0 NMat=1 NMatS=1 NMatT=0.
 -------------------------------------------------------------------
 Center     Atomic                   Forces (Hartrees/Bohr)
 Number     Number              X              Y              Z
 -------------------------------------------------------------------
      1       30          -0.000000000   -0.000000000   -0.000000000
      2        8          -0.000000000   -0.000000000   -0.000000000
      3        8           0.000523130   -0.000340744   -0.000309392
      4        8          -0.000000000   -0.000000000   -0.000000000
      5        8           0.001178760   -0.000427902    0.000564534
      6        6          -0.000000000   -0.000000000   -0.000000000
      7        6          -0.000000000   -0.000000000   -0.000000000
      8       30          -0.003903504    0.000929756   -0.000910095
      9        8           0.000233227    0.000442464    0.000367480
     10        8          -0.000000000   -0.000000000   -0.000000000
     11        8           0.002131707    0.000399788   -0.001138915
     12        8          -0.000000000   -0.000000000   -0.000000000
     13        6          -0.000000000   -0.000000000   -0.000000000
     14        6          -0.000000000   -0.000000000   -0.000000000
     15        1          -0.000000000   -0.000000000   -0.000000000
     16        1          -0.000000000   -0.000000000   -0.000000000
     17        1          -0.000000000   -0.000000000   -0.000000000
     18        1          -0.000000000   -0.000000000   -0.000000000
     19        6          -0.000000000   -0.000000000   -0.000000000
     20        6          -0.000000000   -0.000000000   -0.000000000
     21        6          -0.000000000   -0.000000000   -0.000000000
     22        6          -0.000000000   -0.000000000   -0.000000000
     23        6          -0.000000000   -0.000000000   -0.000000000
     24        7          -0.000000000   -0.000000000   -0.000000000
     25        1          -0.000000000   -0.000000000   -0.000000000
     26        1          -0.000000000   -0.000000000   -0.000000000
     27        1          -0.000000000   -0.000000000   -0.000000000
     28        1          -0.000000000   -0.000000000   -0.000000000
     29        1          -0.000000000   -0.000000000   -0.000000000
     30        6           0.000005645    0.000081804   -0.000167294
     31        6           0.000074326   -0.000012123    0.000141353
     32        6          -0.000157762    0.000346460    0.000242579
     33        8          -0.000127374   -0.000297216   -0.001014691
     34        6           0.000418354    0.000280893    0.001450260
     35        6          -0.000036439    0.004487621   -0.002649806
     36        6           0.001123844   -0.000028370   -0.001492745
     37        8          -0.007534873    0.012521826   -0.001094927
     38        1           0.000001729   -0.000037500   -0.000061106
     39        1          -0.000002267   -0.000033648    0.000016002
     40        1          -0.000060704   -0.000065034   -0.000012922
     41        1           0.000007161   -0.000024086   -0.000023542
     42        1           0.000004175   -0.000010724    0.000007255
     43        1          -0.000119730   -0.000319807   -0.000165698
     44        1           0.000054086   -0.000163047   -0.000209622
     45        1           0.000040582    0.000736485    0.000013567
     46        1          -0.000175495    0.000056733   -0.000061110
     47        1           0.000063805    0.000113576    0.000178875
     48        7          -0.000000000   -0.000000000   -0.000000000
     49        6          -0.000000000   -0.000000000   -0.000000000
     50        6          -0.000000000   -0.000000000   -0.000000000
     51        1          -0.000000000   -0.000000000   -0.000000000
     52        1          -0.000000000   -0.000000000   -0.000000000
     53        1          -0.000000000   -0.000000000   -0.000000000
     54        1          -0.000000000   -0.000000000   -0.000000000
     55        1          -0.000000000   -0.000000000   -0.000000000
     56        6          -0.000000000   -0.000000000   -0.000000000
     57        6          -0.000000000   -0.000000000   -0.000000000
     58        1          -0.000000000   -0.000000000   -0.000000000
     59        1          -0.000000000   -0.000000000   -0.000000000
     60        1          -0.000000000   -0.000000000   -0.000000000
     61        1          -0.000000000   -0.000000000   -0.000000000
     62        1          -0.000000000   -0.000000000   -0.000000000
     63        6          -0.000000000   -0.000000000   -0.000000000
     64        6          -0.000000000   -0.000000000   -0.000000000
     65        1          -0.000000000   -0.000000000   -0.000000000
     66        1          -0.000000000   -0.000000000   -0.000000000
     67        1          -0.000000000   -0.000000000   -0.000000000
     68        1          -0.000000000   -0.000000000   -0.000000000
     69        1          -0.000000000   -0.000000000   -0.000000000
     70        6          -0.000000000   -0.000000000   -0.000000000
     71        6          -0.000000000   -0.000000000   -0.000000000
     72        1          -0.000000000   -0.000000000   -0.000000000
     73        1          -0.000000000   -0.000000000   -0.000000000
     74        1          -0.000000000   -0.000000000   -0.000000000
     75        1          -0.000000000   -0.000000000   -0.000000000
     76        1          -0.000000000   -0.000000000   -0.000000000
     77       35          -0.001094381   -0.000761403    0.001232823
     78        6          -0.014456586    0.013029916   -0.004479316
     79        8           0.013108396   -0.021587506    0.001223552
     80        8           0.010212290   -0.008896328    0.007810487
 -------------------------------------------------------------------
 Cartesian Forces:  Max     0.021587506 RMS     0.002550863

 GradGradGradGradGradGradGradGradGradGradGradGradGradGradGradGradGradGrad
 Berny optimization.
 Search for a local minimum.
 Step number   1 out of a maximum of  250
 All quantities printed in internal units (Hartrees-Bohrs-Radians)
 Second derivative matrix not updated -- analytic derivatives used.
 ITU=  0
     Eigenvalues ---   -0.00365  -0.00179  -0.00022   0.00002   0.00004
     Eigenvalues ---    0.00007   0.00014   0.00055   0.00072   0.00114
     Eigenvalues ---    0.00160   0.00190   0.00271   0.00354   0.00640
     Eigenvalues ---    0.01003   0.01302   0.01479   0.01646   0.01905
     Eigenvalues ---    0.02218   0.02502   0.02661   0.02755   0.03596
     Eigenvalues ---    0.03677   0.04108   0.04587   0.04619   0.04659
     Eigenvalues ---    0.05112   0.05575   0.06056   0.06149   0.06999
     Eigenvalues ---    0.07648   0.08156   0.08834   0.08915   0.09951
     Eigenvalues ---    0.09969   0.10107   0.11774   0.11847   0.12516
     Eigenvalues ---    0.13654   0.14259   0.14482   0.14964   0.16068
     Eigenvalues ---    0.17137   0.18147   0.18887   0.20793   0.21168
     Eigenvalues ---    0.21479   0.21905   0.26422   0.30629   0.34450
     Eigenvalues ---    0.41230   0.49395   0.57988   0.61934   0.66131
     Eigenvalues ---    0.66420   0.67552   0.68466   0.70210   0.72187
     Eigenvalues ---    0.72933   0.76089   0.78917   0.80767   0.85901
     Eigenvalues ---    0.87711   0.93432   0.97756   1.10998   1.45672
     Eigenvalues ---    2.87019
 RFO step:  Lambda=-1.11723338D-02 EMin=-3.64910711D-03
 Linear search not attempted -- first point.
 Maximum step size (   0.300) exceeded in Quadratic search.
    -- Step size scaled by   0.299
 Variable       Old X    -DE/DX   Delta X   Delta X   Delta X     New X
                                 (Linear)    (Quad)   (Total)
    X1       -8.87130  -0.00000   0.00000   0.00000   0.00000  -8.87130
    Y1       -4.77894  -0.00000   0.00000   0.00000   0.00000  -4.77894
    Z1        4.39610  -0.00000   0.00000   0.00000   0.00000   4.39610
    X2       -8.69278  -0.00000   0.00000   0.00000   0.00000  -8.69278
    Y2       -1.76072  -0.00000   0.00000   0.00000   0.00000  -1.76072
    Z2        6.86228  -0.00000   0.00000   0.00000   0.00000   6.86228
    X3       -4.42658   0.00052   0.00000   0.00013   0.00013  -4.42644
    Y3       -1.61872  -0.00034   0.00000  -0.00015  -0.00015  -1.61887
    Z3        6.69127  -0.00031   0.00000  -0.00093  -0.00093   6.69034
    X4       -7.12691  -0.00000   0.00000   0.00000   0.00000  -7.12691
    Y4       -2.41835  -0.00000   0.00000   0.00000   0.00000  -2.41835
    Z4        1.56513  -0.00000   0.00000   0.00000   0.00000   1.56513
    X5       -2.87638   0.00118   0.00000   0.00084   0.00084  -2.87554
    Y5       -2.09162  -0.00043   0.00000   0.00082   0.00082  -2.09080
    Z5        1.26590   0.00056   0.00000  -0.00005  -0.00005   1.26586
    X6       -6.54077  -0.00000   0.00000   0.00000   0.00000  -6.54077
    Y6       -0.88593  -0.00000   0.00000   0.00000   0.00000  -0.88593
    Z6        7.45070  -0.00000   0.00000   0.00000   0.00000   7.45070
    X7       -5.10895  -0.00000   0.00000   0.00000   0.00000  -5.10895
    Y7       -1.59236  -0.00000   0.00000   0.00000   0.00000  -1.59236
    Z7        0.60706  -0.00000   0.00000   0.00000   0.00000   0.60706
    X8       -2.16311  -0.00390   0.00000  -0.01203  -0.01203  -2.17514
    Y8       -4.59481   0.00093   0.00000   0.00912   0.00912  -4.58569
    Z8        4.20167  -0.00091   0.00000   0.00184   0.00184   4.20351
    X9       -4.31333   0.00023   0.00000  -0.00102  -0.00102  -4.31434
    Y9       -7.54614   0.00044   0.00000   0.00278   0.00278  -7.54336
    Z9        1.83088   0.00037   0.00000  -0.00006  -0.00006   1.83082
   X10       -8.57814  -0.00000   0.00000   0.00000   0.00000  -8.57814
   Y10       -7.77728  -0.00000   0.00000   0.00000   0.00000  -7.77728
   Z10        1.91665  -0.00000   0.00000   0.00000   0.00000   1.91665
   X11       -2.51654   0.00213   0.00000   0.00038   0.00038  -2.51615
   Y11       -6.97931   0.00040   0.00000   0.00045   0.00045  -6.97886
   Z11        7.18918  -0.00114   0.00000  -0.00240  -0.00240   7.18678
   X12       -6.79018  -0.00000   0.00000   0.00000   0.00000  -6.79018
   Y12       -6.98145  -0.00000   0.00000   0.00000   0.00000  -6.98145
   Z12        7.12537  -0.00000   0.00000   0.00000   0.00000   7.12537
   X13       -6.39654  -0.00000   0.00000   0.00000   0.00000  -6.39654
   Y13       -8.47500  -0.00000   0.00000   0.00000   0.00000  -8.47500
   Z13        1.21201  -0.00000   0.00000   0.00000   0.00000   1.21201
   X14       -4.66305  -0.00000   0.00000   0.00000   0.00000  -4.66305
   Y14       -7.63753  -0.00000   0.00000   0.00000   0.00000  -7.63753
   Z14        7.97226  -0.00000   0.00000   0.00000   0.00000   7.97226
   X15       -6.52977  -0.00000   0.00000   0.00000   0.00000  -6.52977
   Y15        0.72534  -0.00000   0.00000   0.00000   0.00000   0.72534
   Z15        8.77271  -0.00000   0.00000   0.00000   0.00000   8.77271
   X16       -5.27373  -0.00000   0.00000   0.00000   0.00000  -5.27373
   Y16       -0.27619  -0.00000   0.00000   0.00000   0.00000  -0.27619
   Z16       -0.99695  -0.00000   0.00000   0.00000   0.00000  -0.99695
   X17       -6.32498  -0.00000   0.00000   0.00000   0.00000  -6.32498
   Y17      -10.08270  -0.00000   0.00000   0.00000   0.00000 -10.08270
   Z17       -0.11244  -0.00000   0.00000   0.00000   0.00000  -0.11244
   X18       -4.63355  -0.00000   0.00000   0.00000   0.00000  -4.63355
   Y18       -8.95827  -0.00000   0.00000   0.00000   0.00000  -8.95827
   Z18        9.58071  -0.00000   0.00000   0.00000   0.00000   9.58071
   X19      -14.23690  -0.00000   0.00000   0.00000   0.00000 -14.23690
   Y19       -3.30988  -0.00000   0.00000   0.00000   0.00000  -3.30988
   Z19        5.94204  -0.00000   0.00000   0.00000   0.00000   5.94204
   X20      -16.86616  -0.00000   0.00000   0.00000   0.00000 -16.86616
   Y20       -3.36328  -0.00000   0.00000   0.00000   0.00000  -3.36328
   Z20        6.06550  -0.00000   0.00000   0.00000   0.00000   6.06550
   X21      -18.17065  -0.00000   0.00000   0.00000   0.00000 -18.17065
   Y21       -5.17382  -0.00000   0.00000   0.00000   0.00000  -5.17382
   Z21        4.65857  -0.00000   0.00000   0.00000   0.00000   4.65857
   X22      -16.79864  -0.00000   0.00000   0.00000   0.00000 -16.79864
   Y22       -6.86999  -0.00000   0.00000   0.00000   0.00000  -6.86999
   Z22        3.17539  -0.00000   0.00000   0.00000   0.00000   3.17539
   X23      -14.17165  -0.00000   0.00000   0.00000   0.00000 -14.17165
   Y23       -6.69889  -0.00000   0.00000   0.00000   0.00000  -6.69889
   Z23        3.14927  -0.00000   0.00000   0.00000   0.00000   3.14927
   X24      -12.91531  -0.00000   0.00000   0.00000   0.00000 -12.91531
   Y24       -4.94935  -0.00000   0.00000   0.00000   0.00000  -4.94935
   Z24        4.50899  -0.00000   0.00000   0.00000   0.00000   4.50899
   X25      -20.22042  -0.00000   0.00000   0.00000   0.00000 -20.22042
   Y25       -5.26143  -0.00000   0.00000   0.00000   0.00000  -5.26143
   Z25        4.71697  -0.00000   0.00000   0.00000   0.00000   4.71697
   X26      -13.12027  -0.00000   0.00000   0.00000   0.00000 -13.12027
   Y26       -1.94712  -0.00000   0.00000   0.00000   0.00000  -1.94712
   Z26        6.99214  -0.00000   0.00000   0.00000   0.00000   6.99214
   X27      -17.85649  -0.00000   0.00000   0.00000   0.00000 -17.85649
   Y27       -2.00886  -0.00000   0.00000   0.00000   0.00000  -2.00886
   Z27        7.24314  -0.00000   0.00000   0.00000   0.00000   7.24314
   X28      -17.73520  -0.00000   0.00000   0.00000   0.00000 -17.73520
   Y28       -8.30676  -0.00000   0.00000   0.00000   0.00000  -8.30676
   Z28        2.05265  -0.00000   0.00000   0.00000   0.00000   2.05265
   X29      -13.00437  -0.00000   0.00000   0.00000   0.00000 -13.00437
   Y29       -7.96424  -0.00000   0.00000   0.00000   0.00000  -7.96424
   Z29        2.03436  -0.00000   0.00000   0.00000   0.00000   2.03436
   X30        1.00644   0.00001   0.00000  -0.00024  -0.00024   1.00620
   Y30        2.60930   0.00008   0.00000   0.00140   0.00140   2.61070
   Z30       12.54852  -0.00017   0.00000   0.00426   0.00426  12.55278
   X31        2.46914   0.00007   0.00000   0.00113   0.00113   2.47027
   Y31        2.58654  -0.00001   0.00000   0.00626   0.00626   2.59280
   Z31       10.49037   0.00014   0.00000   0.00531   0.00531  10.49569
   X32        1.52309  -0.00016   0.00000   0.00270   0.00270   1.52579
   Y32        2.20218   0.00035   0.00000   0.00984   0.00984   2.21202
   Z32        7.84284   0.00024   0.00000   0.00443   0.00443   7.84727
   X33        3.01575  -0.00013   0.00000   0.00978   0.00978   3.02553
   Y33        0.32916  -0.00030   0.00000   0.01853   0.01853   0.34768
   Z33        6.64961  -0.00101   0.00000  -0.00022  -0.00022   6.64939
   X34        2.45978   0.00042   0.00000   0.00938   0.00938   2.46917
   Y34        0.05196   0.00028   0.00000   0.02001   0.02001   0.07197
   Z34        4.01981   0.00145   0.00000   0.00126   0.00126   4.02107
   X35        3.16108  -0.00004   0.00000   0.00583   0.00583   3.16690
   Y35       -2.63467   0.00449   0.00000   0.02030   0.02030  -2.61437
   Z35        3.18182  -0.00265   0.00000   0.00623   0.00623   3.18806
   X36        3.11752   0.00112   0.00000   0.00475   0.00475   3.12226
   Y36       -2.90562  -0.00003   0.00000   0.00440   0.00440  -2.90123
   Z36        0.29144  -0.00149   0.00000   0.00777   0.00777   0.29921
   X37        1.54001  -0.00753   0.00000  -0.00140  -0.00140   1.53861
   Y37       -4.48108   0.01252   0.00000   0.03122   0.03122  -4.44985
   Z37        4.05403  -0.00109   0.00000   0.02330   0.02330   4.07732
   X38        1.78339   0.00000   0.00000  -0.00174  -0.00174   1.78165
   Y38        2.94680  -0.00004   0.00000  -0.00062  -0.00062   2.94618
   Z38       14.42006  -0.00006   0.00000   0.00516   0.00516  14.42522
   X39       -1.01578  -0.00000   0.00000   0.00033   0.00033  -1.01546
   Y39        2.26079  -0.00003   0.00000  -0.00131  -0.00131   2.25948
   Z39       12.42936   0.00002   0.00000   0.00256   0.00256  12.43192
   X40        4.50147  -0.00006   0.00000   0.00069   0.00069   4.50216
   Y40        2.87930  -0.00007   0.00000   0.00784   0.00784   2.88714
   Z40       10.66358  -0.00001   0.00000   0.00660   0.00660  10.67018
   X41        1.68461   0.00001   0.00000  -0.00344  -0.00344   1.68117
   Y41        4.01031  -0.00002   0.00000   0.01239   0.01239   4.02270
   Z41        6.79779  -0.00002   0.00000   0.00820   0.00820   6.80599
   X42       -0.48135   0.00000   0.00000   0.00483   0.00483  -0.47652
   Y42        1.64710  -0.00001   0.00000   0.00214   0.00214   1.64925
   Z42        7.84249   0.00001   0.00000   0.00276   0.00276   7.84526
   X43        3.53145  -0.00012   0.00000   0.01062   0.01062   3.54207
   Y43        1.47918  -0.00032   0.00000   0.01685   0.01685   1.49603
   Z43        2.94570  -0.00017   0.00000  -0.00084  -0.00084   2.94485
   X44        0.43521   0.00005   0.00000   0.00937   0.00937   0.44458
   Y44        0.34635  -0.00016   0.00000   0.01839   0.01839   0.36474
   Z44        3.67401  -0.00021   0.00000   0.00018   0.00018   3.67420
   X45        5.10860   0.00004   0.00000   0.00327   0.00327   5.11187
   Y45       -2.99343   0.00074   0.00000   0.01667   0.01667  -2.97676
   Z45        3.85477   0.00001   0.00000   0.01012   0.01012   3.86489
   X46        3.58642  -0.00018   0.00000  -0.00211  -0.00211   3.58431
   Y46       -4.83293   0.00006   0.00000   0.00002   0.00002  -4.83291
   Z46       -0.24282  -0.00006   0.00000   0.01661   0.01661  -0.22622
   X47        1.32437   0.00006   0.00000   0.00487   0.00487   1.32924
   Y47       -2.31326   0.00011   0.00000   0.00333   0.00333  -2.30994
   Z47       -0.52374   0.00018   0.00000   0.00687   0.00687  -0.51687
   X48       17.61915  -0.00000   0.00000   0.00000   0.00000  17.61915
   Y48       14.88838  -0.00000   0.00000   0.00000   0.00000  14.88838
   Z48      -17.79806  -0.00000   0.00000   0.00000   0.00000 -17.79806
   X49       16.58271  -0.00000   0.00000   0.00000   0.00000  16.58271
   Y49       16.37692  -0.00000   0.00000   0.00000   0.00000  16.37692
   Z49      -20.08303  -0.00000   0.00000   0.00000   0.00000 -20.08303
   X50       13.73912  -0.00000   0.00000   0.00000   0.00000  13.73912
   Y50       16.29489  -0.00000   0.00000   0.00000   0.00000  16.29489
   Z50      -20.54615  -0.00000   0.00000   0.00000   0.00000 -20.54615
   X51       17.59910  -0.00000   0.00000   0.00000   0.00000  17.59910
   Y51       15.62936  -0.00000   0.00000   0.00000   0.00000  15.62936
   Z51      -21.73414  -0.00000   0.00000   0.00000   0.00000 -21.73414
   X52       17.15535  -0.00000   0.00000   0.00000   0.00000  17.15535
   Y52       18.33393  -0.00000   0.00000   0.00000   0.00000  18.33393
   Z52      -19.74950  -0.00000   0.00000   0.00000   0.00000 -19.74950
   X53       13.42382  -0.00000   0.00000   0.00000   0.00000  13.42382
   Y53       17.30425  -0.00000   0.00000   0.00000   0.00000  17.30425
   Z53      -22.32412  -0.00000   0.00000   0.00000   0.00000 -22.32412
   X54       13.00838  -0.00000   0.00000   0.00000   0.00000  13.00838
   Y54       14.38781  -0.00000   0.00000   0.00000   0.00000  14.38781
   Z54      -20.81292  -0.00000   0.00000   0.00000   0.00000 -20.81292
   X55       12.62969  -0.00000   0.00000   0.00000   0.00000  12.62969
   Y55       17.25110  -0.00000   0.00000   0.00000   0.00000  17.25110
   Z55      -19.08670  -0.00000   0.00000   0.00000   0.00000 -19.08670
   X56       15.85821  -0.00000   0.00000   0.00000   0.00000  15.85821
   Y56       15.21096  -0.00000   0.00000   0.00000   0.00000  15.21096
   Z56      -15.55558  -0.00000   0.00000   0.00000   0.00000 -15.55558
   X57       16.70475  -0.00000   0.00000   0.00000   0.00000  16.70475
   Y57       13.99330  -0.00000   0.00000   0.00000   0.00000  13.99330
   Z57      -13.08109  -0.00000   0.00000   0.00000   0.00000 -13.08109
   X58       14.03717  -0.00000   0.00000   0.00000   0.00000  14.03717
   Y58       14.43907  -0.00000   0.00000   0.00000   0.00000  14.43907
   Z58      -16.12249  -0.00000   0.00000   0.00000   0.00000 -16.12249
   X59       15.62049  -0.00000   0.00000   0.00000   0.00000  15.62049
   Y59       17.25043  -0.00000   0.00000   0.00000   0.00000  17.25043
   Z59      -15.31367  -0.00000   0.00000   0.00000   0.00000 -15.31367
   X60       15.23260  -0.00000   0.00000   0.00000   0.00000  15.23260
   Y60       14.35284  -0.00000   0.00000   0.00000   0.00000  14.35284
   Z60      -11.67320  -0.00000   0.00000   0.00000   0.00000 -11.67320
   X61       16.91441  -0.00000   0.00000   0.00000   0.00000  16.91441
   Y61       11.94506  -0.00000   0.00000   0.00000   0.00000  11.94506
   Z61      -13.23950  -0.00000   0.00000   0.00000   0.00000 -13.23950
   X62       18.46306  -0.00000   0.00000   0.00000   0.00000  18.46306
   Y62       14.78657  -0.00000   0.00000   0.00000   0.00000  14.78657
   Z62      -12.34523  -0.00000   0.00000   0.00000   0.00000 -12.34523
   X63       20.19810  -0.00000   0.00000   0.00000   0.00000  20.19810
[...]
 0.,0.,0.,0.,0.,0.,0.,0.,0.,0.,0.,0.,0.,0.,0.,0.,0.,0.,0.,0.,0.,0.,0.,0
 .,0.,0.,0.,0.,0.,0.,0.,0.,0.,0.,0.,0.,0.,0.,0.,0.,0.,0.,0.,0.,0.,0.,0.
 ,0.,0.,0.,0.,0.,0.,0.,0.,0.,0.,0.,0.,0.,0.,0.,0.,0.,0.,0.,0.,0.,0.,0.,
 0.,0.,0.,0.,0.,0.,0.,0.,0.,0.,0.,0.,0.,0.,0.,0.,0.,0.,0.,0.,0.,0.,0.,0
 .,0.,0.,0.,0.,0.,0.,0.,0.,0.,0.,0.,0.,0.,0.,0.,0.,0.,0.,0.,0.,0.,0.,0.
 ,0.,0.,0.,0.,0.,0.,0.,0.,0.,0.,0.,0.,0.,0.,0.,0.,0.,0.,0.,0.,0.,0.,0.,
 0.,0.,0.,0.,0.,0.,0.,0.,0.,0.,0.,0.,0.,0.,0.,0.,0.,0.,0.,0.,0.,0.,0.,0
 .,0.,0.,0.,0.,0.,0.,0.,0.,0.,0.,0.,0.,0.,0.,0.,0.,0.,0.,0.,0.,0.,0.,0.
 ,0.,0.,0.,0.,0.,0.,0.,0.,0.,0.,0.,0.,0.,0.,0.,0.,0.,0.,0.,0.,0.,0.,0.,
 0.,0.,0.,0.,0.,0.,0.,0.,0.,0.,0.,0.,0.,0.,0.,0.,0.,0.,0.,0.,0.,0.,0.,0
 .,0.,0.,0.,0.,0.,0.,0.,0.,0.,0.,0.,0.,0.,0.,0.,0.,0.,0.,0.,0.,0.,0.,0.
 ,0.,0.,0.,0.,0.,0.,0.,0.,0.,0.,0.,0.,0.,0.,0.,0.,0.,0.,0.,0.,0.,0.,0.,
 0.,0.,0.,0.,0.,0.,0.,0.,0.,0.,0.,0.,0.,0.,0.,0.,0.,0.,0.,0.,0.,0.,0.,0
 .,0.,0.,0.,0.,0.,0.,0.,0.,0.,0.,0.,0.,0.,0.,0.,0.,0.,0.,0.,0.,0.,0.,0.
 ,0.,0.,0.,0.,0.,0.,0.,0.,0.,0.,0.,0.,0.,0.,0.,0.,0.,0.,0.,0.,0.,0.,0.,
 0.,0.,0.,0.,0.,0.,0.,0.,0.,0.,0.,0.,0.,0.,0.,0.,0.,0.,0.,0.,0.,0.,0.,0
 .,0.,0.,0.,0.,0.,0.,0.,0.,0.,0.,0.,0.,0.,0.,0.,0.,0.,0.,0.,0.,0.,0.,0.
 ,0.,0.,0.,0.,0.,0.,0.,0.,0.,0.,0.,0.,0.,0.,0.,0.,0.,0.,0.,0.,0.,0.,0.,
 0.,0.,0.,0.,0.,0.,0.,0.,0.,0.,0.,0.,0.,0.,0.,0.,0.,0.,0.,0.,0.,0.,0.,0
 .,0.,0.,0.,0.,0.,0.,0.,0.,0.,0.,0.,0.,0.,0.,0.,0.,0.,0.,0.,0.,0.,0.,0.
 ,0.,0.,0.,0.,0.,0.,0.,0.,0.,0.,0.,0.,0.,0.,0.,0.,0.,0.,0.,0.,0.,0.,0.,
 0.,0.,0.,0.,0.,0.,0.,0.,0.,0.,0.,0.,0.,0.,0.,0.,0.,0.,0.,0.,0.,0.,0.,0
 .,0.,0.,0.,0.,0.,0.,0.,0.,0.,0.,0.,0.,0.,0.,0.,0.,0.,0.,0.,0.,0.,0.,0.
 ,0.,0.,0.,0.,0.,0.,0.,0.,0.,0.,0.,0.,0.,0.,0.,0.,0.,0.,0.,0.,0.,0.,0.,
 0.,0.,0.,0.,0.,0.,0.,0.,0.,0.,0.,0.,0.,0.,0.,0.,0.,0.,0.,0.,0.,0.,0.,0
 .,0.,0.,0.,0.,0.,0.,0.,0.,0.,0.,0.,0.,0.,0.,0.,0.,0.,0.,0.,0.,0.,0.,0.
 ,0.,0.,0.,0.,0.,0.,0.,0.,0.,0.,0.,0.,0.,0.,0.,0.,0.,0.,0.,0.,0.,0.,0.,
 0.,0.,0.,0.,0.,0.,0.,0.,0.,0.,0.,0.,0.,0.,0.,0.,0.,0.,0.,0.,0.,0.,0.,0
 .,0.,0.,0.,0.,0.,0.,0.,0.,0.,0.,0.,0.,0.,0.,0.,0.,0.,0.,0.,0.,0.,0.,0.
 ,0.,0.,0.,0.,0.,0.,0.,0.,0.,0.,0.,0.,0.,0.,0.,0.,0.,0.,0.,0.,0.,0.,0.,
 0.,0.,0.,0.,0.,0.,0.,0.,0.,0.,0.,0.,0.,0.,0.,0.,0.,0.,0.,0.,0.,0.,-0.0
 0082018,0.00045284,0.00042084,0.,0.,0.,-0.00201024,0.00094898,-0.00075
 876,0.,0.,0.,0.,0.,0.,0.00444721,0.00030923,-0.00030858,-0.00084173,-0
 .00054945,-0.00035406,0.,0.,0.,-0.00126939,-0.00072868,0.00072127,0.,0
 .,0.,0.,0.,0.,0.,0.,0.,0.,0.,0.,0.,0.,0.,0.,0.,0.,0.,0.,0.,0.,0.,0.,0.
 ,0.,0.,0.,0.,0.,0.,0.,0.,0.,0.,0.,0.,0.,0.,0.,0.,0.,0.,0.,0.,0.,0.,0.,
 0.,0.,0.,0.,0.,0.,0.00000217,0.00008178,0.00004139,-0.00011200,0.00004
 660,-0.00006388,0.00022646,-0.00051426,-0.00019657,0.00033939,0.000836
 32,0.00035098,-0.00016623,-0.00031513,0.00065343,-0.01300981,-0.009710
 43,-0.00180572,-0.03566099,-0.00770303,0.00203229,-0.00076259,-0.00028
 291,0.01028278,0.00000989,-0.00001170,0.00004389,0.00002200,-0.0000302
 7,-0.00001396,0.00004752,-0.00002127,0.00004020,-0.00003601,0.00017196
 ,-0.00003641,0.00001094,-0.00001863,-0.00001919,-0.00035332,0.00109953
 ,0.00085416,0.00017130,-0.00027670,-0.00008680,0.00206105,0.00029919,0
 .00031879,-0.00639887,-0.00330454,0.00482356,-0.01163453,-0.01680539,0
 .01645534,0.,0.,0.,0.,0.,0.,0.,0.,0.,0.,0.,0.,0.,0.,0.,0.,0.,0.,0.,0.,
 0.,0.,0.,0.,0.,0.,0.,0.,0.,0.,0.,0.,0.,0.,0.,0.,0.,0.,0.,0.,0.,0.,0.,0
 .,0.,0.,0.,0.,0.,0.,0.,0.,0.,0.,0.,0.,0.,0.,0.,0.,0.,0.,0.,0.,0.,0.,0.
 ,0.,0.,0.,0.,0.,0.,0.,0.,0.,0.,0.,0.,0.,0.,0.,0.,0.,0.,0.,0.,0.0634692
 2,0.,0.,0.,0.,0.,0.,-0.00050673,0.00039302,0.00022168,0.,0.,0.,-0.0009
 4487,0.00075210,-0.00060284,0.,0.,0.,0.,0.,0.,0.00331067,-0.00020635,0
 .00010542,-0.00066354,-0.00027470,-0.00025339,0.,0.,0.,-0.00102012,-0.
 00049554,0.00053658,0.,0.,0.,0.,0.,0.,0.,0.,0.,0.,0.,0.,0.,0.,0.,0.,0.
 ,0.,0.,0.,0.,0.,0.,0.,0.,0.,0.,0.,0.,0.,0.,0.,0.,0.,0.,0.,0.,0.,0.,0.,
 0.,0.,0.,0.,0.,0.,0.,0.,0.,0.,0.,0.,0.,0.,-0.00000983,0.00003972,-0.00
 001646,-0.00002997,0.00005634,0.00000618,-0.00007510,-0.00010227,0.000
 12551,0.00026991,0.00099536,-0.00099850,-0.00008453,-0.00204373,0.0006
 1509,-0.00706824,-0.00770133,-0.00062458,-0.00827236,-0.03082569,0.001
 48518,-0.00200005,0.00198822,0.00745007,0.00000830,-0.00001775,0.00000
 740,0.00001776,-0.00002619,-0.00000455,0.00002065,-0.00001974,0.000022
 64,0.00000003,0.00013257,-0.00002028,0.00003960,-0.00003654,-0.0000168
 1,0.00132117,0.00157215,-0.00147345,0.00027301,0.00007073,-0.00016376,
 0.00095233,0.00018739,-0.00007042,-0.02058734,-0.00654788,0.01404686,-
 0.00192311,-0.00177140,0.00222139,0.,0.,0.,0.,0.,0.,0.,0.,0.,0.,0.,0.,
 0.,0.,0.,0.,0.,0.,0.,0.,0.,0.,0.,0.,0.,0.,0.,0.,0.,0.,0.,0.,0.,0.,0.,0
 .,0.,0.,0.,0.,0.,0.,0.,0.,0.,0.,0.,0.,0.,0.,0.,0.,0.,0.,0.,0.,0.,0.,0.
 ,0.,0.,0.,0.,0.,0.,0.,0.,0.,0.,0.,0.,0.,0.,0.,0.,0.,0.,0.,0.,0.,0.,0.,
 0.,0.,0.,0.,0.,0.03556002,0.04354482,0.,0.,0.,0.,0.,0.,0.00091894,-0.0
 0042972,-0.00029180,0.,0.,0.,0.00114849,-0.00066707,0.00108620,0.,0.,0
 .,0.,0.,0.,-0.00466626,-0.00016943,-0.00084252,0.00068327,0.00040505,0
 .00045889,0.,0.,0.,0.00150356,0.00080977,-0.00072387,0.,0.,0.,0.,0.,0.
 ,0.,0.,0.,0.,0.,0.,0.,0.,0.,0.,0.,0.,0.,0.,0.,0.,0.,0.,0.,0.,0.,0.,0.,
 0.,0.,0.,0.,0.,0.,0.,0.,0.,0.,0.,0.,0.,0.,0.,0.,0.,0.,0.,0.,0.,0.,0.,0
 .,0.,0.00000797,-0.00008590,-0.00005461,0.00007929,-0.00005913,0.00007
 125,-0.00034697,0.00073549,0.00035497,-0.00018002,-0.00061030,-0.00053
 919,0.00069219,-0.00138212,-0.00018536,0.02028114,0.01766818,0.0021228
 7,0.00430148,0.00256955,-0.02443438,0.00518614,0.00191634,-0.01266256,
 -0.00000937,0.00001427,-0.00005007,-0.00000799,0.00003098,0.00001129,-
 0.00003155,0.00003945,-0.00001717,0.00001637,-0.00018092,0.00005324,0.
 00003917,0.00000269,0.00000200,0.00107516,-0.00060022,-0.00190469,0.00
 012836,0.00046895,-0.00029868,-0.00099612,-0.00006247,0.00089791,0.004
 35314,0.00223557,-0.00280165,0.00112641,0.00045473,-0.00050838,0.,0.,0
 .,0.,0.,0.,0.,0.,0.,0.,0.,0.,0.,0.,0.,0.,0.,0.,0.,0.,0.,0.,0.,0.,0.,0.
 ,0.,0.,0.,0.,0.,0.,0.,0.,0.,0.,0.,0.,0.,0.,0.,0.,0.,0.,0.,0.,0.,0.,0.,
 0.,0.,0.,0.,0.,0.,0.,0.,0.,0.,0.,0.,0.,0.,0.,0.,0.,0.,0.,0.,0.,0.,0.,0
 .,0.,0.,0.,0.,0.,0.,0.,0.,0.,0.,0.,0.,0.,0.,-0.03340842,-0.02254141,0.
 04004956,0.,0.,0.,0.,0.,0.,0.00025355,-0.00082153,-0.00020347,0.,0.,0.
 ,0.00001085,-0.00036980,0.00024006,0.,0.,0.,0.,0.,0.,-0.00130705,0.003
 67432,-0.00220142,0.00087162,0.00016905,0.00085341,0.,0.,0.,0.00476362
 ,-0.00021446,-0.00219460,0.,0.,0.,0.,0.,0.,0.,0.,0.,0.,0.,0.,0.,0.,0.,
 0.,0.,0.,0.,0.,0.,0.,0.,0.,0.,0.,0.,0.,0.,0.,0.,0.,0.,0.,0.,0.,0.,0.,0
 .,0.,0.,0.,0.,0.,0.,0.,0.,0.,0.,0.,0.,0.,0.,0.,0.00003612,0.00010199,-
 0.00010254,0.00002380,0.00005621,0.00008409,0.00016252,-0.00009468,-0.
 00005415,-0.00029292,0.00008301,-0.00055047,-0.00040644,-0.00031085,0.
 00089364,0.00373331,0.00050256,0.00038184,0.00019934,0.00023272,-0.000
 56939,-0.00531643,-0.00375663,0.00089584,-0.00000625,-0.00004724,-0.00
 002620,-0.00001672,-0.00002662,0.00001701,-0.00006152,-0.00007971,-0.0
 0001735,-0.00003133,0.00006775,-0.00001336,-0.00005004,0.00003752,0.00
 003168,-0.00004750,-0.00029118,-0.00014347,-0.00011430,0.00021772,-0.0
 0001942,-0.00116388,-0.00051482,0.00017895,0.00009631,0.00001340,0.000
 00838,0.00004504,0.00002408,-0.00014868,0.,0.,0.,0.,0.,0.,0.,0.,0.,0.,
 0.,0.,0.,0.,0.,0.,0.,0.,0.,0.,0.,0.,0.,0.,0.,0.,0.,0.,0.,0.,0.,0.,0.,0
 .,0.,0.,0.,0.,0.,0.,0.,0.,0.,0.,0.,0.,0.,0.,0.,0.,0.,0.,0.,0.,0.,0.,0.
 ,0.,0.,0.,0.,0.,0.,0.,0.,0.,0.,0.,0.,0.,0.,0.,0.,0.,0.,0.,0.,0.,0.,0.,
 0.,0.,0.,0.,0.,0.,0.,-0.00066893,-0.00039678,0.00050862,0.20839795,0.,
 0.,0.,0.,0.,0.,-0.00142276,0.00003806,0.00013541,0.,0.,0.,-0.00197616,
 0.00021651,-0.00099742,0.,0.,0.,0.,0.,0.,0.00470086,0.00393703,0.00190
 508,0.00091188,-0.00114629,0.00009341,0.,0.,0.,-0.00076986,-0.00428920
 ,-0.00130177,0.,0.,0.,0.,0.,0.,0.,0.,0.,0.,0.,0.,0.,0.,0.,0.,0.,0.,0.,
 0.,0.,0.,0.,0.,0.,0.,0.,0.,0.,0.,0.,0.,0.,0.,0.,0.,0.,0.,0.,0.,0.,0.,0
 .,0.,0.,0.,0.,0.,0.,0.,0.,0.,0.,0.,0.00002194,0.00029961,-0.00006775,-
 0.00012729,0.00014257,-0.00000893,0.00063457,-0.00113646,-0.00054528,-
 0.00041229,0.00124043,-0.00023750,0.00022782,-0.00011700,0.00030105,-0
 .00317564,-0.00282312,0.00199564,-0.00165674,0.00026141,0.00179570,-0.
 00242367,0.00180460,-0.01003509,0.00002248,-0.00007576,0.00006232,0.00
 001611,-0.00011268,0.00000420,-0.00002112,-0.00015905,-0.00000058,-0.0
 0005689,0.00036157,-0.00006057,-0.00009677,0.00001967,0.00008514,0.000
 13565,0.00045844,-0.00009540,-0.00007331,0.00003143,0.00000048,-0.0000
 1789,-0.00036222,0.00067360,0.00022611,0.00002113,-0.00032924,-0.00002
 390,-0.00008059,-0.00019079,0.,0.,0.,0.,0.,0.,0.,0.,0.,0.,0.,0.,0.,0.,
 0.,0.,0.,0.,0.,0.,0.,0.,0.,0.,0.,0.,0.,0.,0.,0.,0.,0.,0.,0.,0.,0.,0.,0
 .,0.,0.,0.,0.,0.,0.,0.,0.,0.,0.,0.,0.,0.,0.,0.,0.,0.,0.,0.,0.,0.,0.,0.
 ,0.,0.,0.,0.,0.,0.,0.,0.,0.,0.,0.,0.,0.,0.,0.,0.,0.,0.,0.,0.,0.,0.,0.,
 0.,0.,0.,0.00158701,0.00078199,-0.00173970,0.22065581,0.83315173,0.,0.
 ,0.,0.,0.,0.,-0.00009344,-0.00021287,-0.00083584,0.,0.,0.,0.00132862,-
 0.00082917,0.00032725,0.,0.,0.,0.,0.,0.,-0.00432023,0.00319815,0.00324
 524,0.00223319,-0.00009376,0.00022028,0.,0.,0.,-0.00033326,-0.00155158
 ,-0.00462037,0.,0.,0.,0.,0.,0.,0.,0.,0.,0.,0.,0.,0.,0.,0.,0.,0.,0.,0.,
 0.,0.,0.,0.,0.,0.,0.,0.,0.,0.,0.,0.,0.,0.,0.,0.,0.,0.,0.,0.,0.,0.,0.,0
 .,0.,0.,0.,0.,0.,0.,0.,0.,0.,0.,0.,0.00001687,0.00037202,-0.00041490,0
 .00001146,0.00014930,0.00026638,-0.00009527,-0.00014171,0.00012045,-0.
 00017611,0.00003247,-0.00232173,-0.00070036,-0.00050309,0.00312366,0.0
 0554193,0.00206035,-0.00079624,0.00052319,0.00133835,-0.00079853,-0.00
 037491,-0.01024552,-0.00207424,0.00001928,-0.00014886,-0.00006824,0.00
 004539,-0.00016466,0.00004666,-0.00009809,-0.00020216,-0.00001298,0.00
 000378,0.00020933,-0.00010241,0.00000311,-0.00005626,0.00009148,-0.000
 13226,-0.00062986,-0.00046475,-0.00020053,0.00021588,-0.00018510,-0.00
 141380,0.00008746,0.00050870,0.00004921,-0.00005471,-0.00062148,-0.000
 06087,-0.00017470,-0.00014497,0.,0.,0.,0.,0.,0.,0.,0.,0.,0.,0.,0.,0.,0
 .,0.,0.,0.,0.,0.,0.,0.,0.,0.,0.,0.,0.,0.,0.,0.,0.,0.,0.,0.,0.,0.,0.,0.
 ,0.,0.,0.,0.,0.,0.,0.,0.,0.,0.,0.,0.,0.,0.,0.,0.,0.,0.,0.,0.,0.,0.,0.,
 0.,0.,0.,0.,0.,0.,0.,0.,0.,0.,0.,0.,0.,0.,0.,0.,0.,0.,0.,0.,0.,0.,0.,0
 .,0.,0.,0.,-0.00076894,-0.00080427,0.00057689,0.25296786,0.84250869,1.
 12673043,0.,0.,0.,0.,0.,0.,-0.00001372,0.00031309,0.00007865,0.,0.,0.,
 0.00012129,0.00015840,-0.00007135,0.,0.,0.,0.,0.,0.,-0.00003194,-0.001
 74445,0.00044435,-0.00060670,0.00004101,-0.00046419,0.,0.,0.,-0.002815
 08,0.00114828,0.00161795,0.,0.,0.,0.,0.,0.,0.,0.,0.,0.,0.,0.,0.,0.,0.,
 0.,0.,0.,0.,0.,0.,0.,0.,0.,0.,0.,0.,0.,0.,0.,0.,0.,0.,0.,0.,0.,0.,0.,0
 .,0.,0.,0.,0.,0.,0.,0.,0.,0.,0.,0.,0.,0.,0.,0.,-0.00001683,-0.00004660
 ,0.00004162,0.00000454,-0.00002442,-0.00003327,-0.00007701,0.00006789,
 0.00002236,0.00009767,-0.00007891,0.00018859,0.00015530,0.00015776,-0.
 00036515,-0.00115447,0.00010971,0.00016365,-0.00007358,-0.00005045,0.0
 0017136,0.00226880,0.00208114,-0.00048750,0.00000220,0.00001902,0.0000
 0781,0.00000270,0.00001457,-0.00000658,0.00002102,0.00002826,0.0000058
 1,0.00001033,-0.00003115,0.00000748,0.00001615,-0.00000890,-0.00001578
 ,0.00001375,0.00011725,0.00005636,0.00003724,-0.00007507,0.00000599,0.
 00031555,0.00013229,-0.00000425,-0.00007299,-0.00000444,-0.00004924,-0
 .00001497,-0.00003396,0.00003309,0.,0.,0.,0.,0.,0.,0.,0.,0.,0.,0.,0.,0
 .,0.,0.,0.,0.,0.,0.,0.,0.,0.,0.,0.,0.,0.,0.,0.,0.,0.,0.,0.,0.,0.,0.,0.
 ,0.,0.,0.,0.,0.,0.,0.,0.,0.,0.,0.,0.,0.,0.,0.,0.,0.,0.,0.,0.,0.,0.,0.,
 0.,0.,0.,0.,0.,0.,0.,0.,0.,0.,0.,0.,0.,0.,0.,0.,0.,0.,0.,0.,0.,0.,0.,0
 .,0.,0.,0.,0.,0.00017293,0.00007146,-0.00010576,-0.09458168,-0.1000329
 7,-0.10638612,0.06538539,0.,0.,0.,0.,0.,0.,0.00073784,-0.00002987,-0.0
 0007265,0.,0.,0.,0.00103213,-0.00011685,0.00056299,0.,0.,0.,0.,0.,0.,-
 0.00227001,-0.00192319,-0.00059908,-0.00032990,0.00066260,0.00001911,0
 .,0.,0.,0.00079399,0.00195206,0.00032808,0.,0.,0.,0.,0.,0.,0.,0.,0.,0.
 ,0.,0.,0.,0.,0.,0.,0.,0.,0.,0.,0.,0.,0.,0.,0.,0.,0.,0.,0.,0.,0.,0.,0.,
 0.,0.,0.,0.,0.,0.,0.,0.,0.,0.,0.,0.,0.,0.,0.,0.,0.,0.,0.,0.,0.,-0.0000
 1621,-0.00017674,0.00005781,0.00007140,-0.00009070,-0.00002027,-0.0003
 1949,0.00055305,0.00021904,0.00022208,-0.00055562,0.00015598,-0.000440
 29,-0.00026719,0.00004916,0.00267620,0.00057304,-0.00114884,0.00074261
 ,0.00002282,-0.00083055,0.00108571,-0.00512788,0.00491544,-0.00001267,
 0.00005125,-0.00002701,-0.00000903,0.00006676,-0.00000438,0.00001584,0
 .00009215,-0.00000172,0.00002055,-0.00016999,0.00004477,0.00004449,-0.
 00000661,-0.00003906,-0.00006892,-0.00037371,0.00001085,0.00000235,0.0
 0007626,0.00002209,-0.00022559,0.00015369,-0.00023678,-0.00008576,-0.0
 0001866,0.00012745,0.00001369,0.00001561,0.00006414,0.,0.,0.,0.,0.,0.,
 0.,0.,0.,0.,0.,0.,0.,0.,0.,0.,0.,0.,0.,0.,0.,0.,0.,0.,0.,0.,0.,0.,0.,0
 .,0.,0.,0.,0.,0.,0.,0.,0.,0.,0.,0.,0.,0.,0.,0.,0.,0.,0.,0.,0.,0.,0.,0.
 ,0.,0.,0.,0.,0.,0.,0.,0.,0.,0.,0.,0.,0.,0.,0.,0.,0.,0.,0.,0.,0.,0.,0.,
 0.,0.,0.,0.,0.,0.,0.,0.,0.,0.,0.,-0.00069033,-0.00033267,0.00076540,-0
 .10016026,-0.45145350,-0.42713805,0.11099514,0.47160791,0.,0.,0.,0.,0.
 ,0.,0.00021749,0.00006075,0.00029228,0.,0.,0.,-0.00022659,0.00026669,0
 .00004143,0.,0.,0.,0.,0.,0.,0.00092988,-0.00163529,-0.00152924,-0.0010
 7080,0.00016915,-0.00006582,0.,0.,0.,0.00029653,0.00078518,0.00150388,
 0.,0.,0.,0.,0.,0.,0.,0.,0.,0.,0.,0.,0.,0.,0.,0.,0.,0.,0.,0.,0.,0.,0.,0
 .,0.,0.,0.,0.,0.,0.,0.,0.,0.,0.,0.,0.,0.,0.,0.,0.,0.,0.,0.,0.,0.,0.,0.
 ,0.,0.,0.,0.,0.,0.,0.,-0.00001100,-0.00019034,0.00017655,0.00001355,-0
 .00008456,-0.00010519,-0.00005023,0.00021331,0.00002466,0.00012267,-0.
 00017070,0.00094869,0.00024166,0.00019151,-0.00118893,-0.00144581,-0.0
 0028363,0.00007998,0.00002063,-0.00068107,-0.00001929,-0.00007218,0.00
 497035,0.00195512,-0.00001150,0.00007008,0.00001900,-0.00001875,0.0000
 8016,-0.00001934,0.00004367,0.00010370,0.00000310,0.00000658,-0.000130
 87,0.00005152,0.00001313,0.00001770,-0.00004579,0.00003079,0.00016138,
 0.00018744,0.00009040,-0.00007990,0.00007789,0.00045746,-0.00002521,-0
 .00025451,-0.00005945,0.00004118,0.00031150,0.00003951,0.00010198,0.00
 007419,0.,0.,0.,0.,0.,0.,0.,0.,0.,0.,0.,0.,0.,0.,0.,0.,0.,0.,0.,0.,0.,
 0.,0.,0.,0.,0.,0.,0.,0.,0.,0.,0.,0.,0.,0.,0.,0.,0.,0.,0.,0.,0.,0.,0.,0
 .,0.,0.,0.,0.,0.,0.,0.,0.,0.,0.,0.,0.,0.,0.,0.,0.,0.,0.,0.,0.,0.,0.,0.
 ,0.,0.,0.,0.,0.,0.,0.,0.,0.,0.,0.,0.,0.,0.,0.,0.,0.,0.,0.,0.00003275,0
 .00021063,0.00006494,-0.10561242,-0.42261398,-0.53037808,0.12359062,0.
 47565064,0.56090457,0.,0.,0.,0.,0.,0.,-0.00017168,0.00035712,0.0000962
 5,0.,0.,0.,-0.00008696,0.00020533,-0.00013729,0.,0.,0.,0.,0.,0.,0.0003
 1334,-0.00087202,0.00056744,-0.00036836,-0.00006253,-0.00028571,0.,0.,
 0.,-0.00247341,-0.00033805,0.00016475,0.,0.,0.,0.,0.,0.,0.,0.,0.,0.,0.
 ,0.,0.,0.,0.,0.,0.,0.,0.,0.,0.,0.,0.,0.,0.,0.,0.,0.,0.,0.,0.,0.,0.,0.,
 0.,0.,0.,0.,0.,0.,0.,0.,0.,0.,0.,0.,0.,0.,0.,0.,0.,0.,0.,0.,-0.0000096
 1,-0.00003670,0.00004083,-0.00005060,-0.00003343,-0.00003385,-0.000085
 86,0.00004099,0.00005231,0.00020779,-0.00001870,0.00027532,0.00015298,
 0.00007363,-0.00041060,-0.00206945,-0.00064033,-0.00029676,-0.00007729
 ,-0.00020613,0.00030997,0.00143547,0.00262702,-0.00187069,0.00000194,0
 .00002268,0.00001644,0.00002096,0.00000329,-0.00000656,0.00004170,0.00
 005369,0.00000938,0.00002014,-0.00003684,0.00000179,0.00003961,-0.0000
 3129,-0.00000870,0.00003139,0.00011501,0.00006631,0.00006539,-0.000109
 25,0.00001495,0.00065651,0.00016177,-0.00007945,-0.00002563,-0.0000027
 5,0.00004782,-0.00001457,0.00001109,0.00009974,0.,0.,0.,0.,0.,0.,0.,0.
 ,0.,0.,0.,0.,0.,0.,0.,0.,0.,0.,0.,0.,0.,0.,0.,0.,0.,0.,0.,0.,0.,0.,0.,
 0.,0.,0.,0.,0.,0.,0.,0.,0.,0.,0.,0.,0.,0.,0.,0.,0.,0.,0.,0.,0.,0.,0.,0
 .,0.,0.,0.,0.,0.,0.,0.,0.,0.,0.,0.,0.,0.,0.,0.,0.,0.,0.,0.,0.,0.,0.,0.
 ,0.,0.,0.,0.,0.,0.,0.,0.,0.,0.00038247,0.00025683,-0.00030493,-0.11146
 729,-0.11741992,-0.14603877,0.02939866,-0.01327626,-0.01803009,0.08291
 516,0.,0.,0.,0.,0.,0.,0.00053742,0.00003814,0.00003148,0.,0.,0.,0.0005
 3958,0.00003224,0.00029591,0.,0.,0.,0.,0.,0.,-0.00096638,-0.00185484,-
 0.00081830,-0.00058558,0.00039945,-0.00008232,0.,0.,0.,0.00039427,0.00
 141992,0.00079299,0.,0.,0.,0.,0.,0.,0.,0.,0.,0.,0.,0.,0.,0.,0.,0.,0.,0
 .,0.,0.,0.,0.,0.,0.,0.,0.,0.,0.,0.,0.,0.,0.,0.,0.,0.,0.,0.,0.,0.,0.,0.
 ,0.,0.,0.,0.,0.,0.,0.,0.,0.,0.,0.,0.,0.,-0.00000837,-0.00016743,0.0000
 7710,0.00004368,-0.00006428,-0.00002814,-0.00026717,0.00049175,0.00024
 545,0.00023870,-0.00059688,0.00047508,0.00008148,0.00014981,-0.0007085
 6,0.00016851,0.00074798,-0.00056063,0.00056053,-0.00018037,-0.00055119
 ,0.00206895,-0.00013086,0.00562673,-0.00001349,0.00004190,-0.00001860,
 -0.00000882,0.00006529,-0.00000790,0.00002487,0.00009567,0.00000359,0.
 00003276,-0.00018653,0.00002939,0.00004806,-0.00000970,-0.00005023,-0.
 00002369,-0.00004029,0.00012830,0.00006855,-0.00006715,0.00003591,0.00
 029910,0.00019821,-0.00041612,-0.00009849,-0.00000222,0.00018099,-0.00
 000490,0.00003659,0.00009684,0.,0.,0.,0.,0.,0.,0.,0.,0.,0.,0.,0.,0.,0.
 ,0.,0.,0.,0.,0.,0.,0.,0.,0.,0.,0.,0.,0.,0.,0.,0.,0.,0.,0.,0.,0.,0.,0.,
 0.,0.,0.,0.,0.,0.,0.,0.,0.,0.,0.,0.,0.,0.,0.,0.,0.,0.,0.,0.,0.,0.,0.,0
 .,0.,0.,0.,0.,0.,0.,0.,0.,0.,0.,0.,0.,0.,0.,0.,0.,0.,0.,0.,0.,0.,0.,0.
 ,0.,0.,0.,-0.00046652,-0.00017728,0.00052210,-0.11714196,-0.38131329,-
 0.40715937,-0.01409208,-0.01478109,-0.05716638,0.12859042,0.39584043,0
 .,0.,0.,0.,0.,0.,-0.00000567,0.00014204,0.00046836,0.,0.,0.,-0.0007941
 0,0.00049117,-0.00022150,0.,0.,0.,0.,0.,0.,0.00200715,-0.00116130,-0.0
 0176010,-0.00117178,0.00006225,-0.00012195,0.,0.,0.,0.00011229,0.00058
 526,0.00233608,0.,0.,0.,0.,0.,0.,0.,0.,0.,0.,0.,0.,0.,0.,0.,0.,0.,0.,0
 .,0.,0.,0.,0.,0.,0.,0.,0.,0.,0.,0.,0.,0.,0.,0.,0.,0.,0.,0.,0.,0.,0.,0.
 ,0.,0.,0.,0.,0.,0.,0.,0.,0.,0.,0.,0.,-0.00001698,-0.00020374,0.0002341
 3,-0.00000029,-0.00008343,-0.00016248,0.00010921,-0.00002208,-0.000159
 78,0.00003671,0.00013231,0.00122267,0.00028839,0.00011324,-0.00145278,
 -0.00335099,-0.00147532,0.00015965,-0.00036922,-0.00058484,0.00056837,
 -0.00105025,0.00613852,-0.00265308,-0.00000824,0.00008849,0.00004600,-
 0.00002595,0.00008930,-0.00002740,0.00005263,0.00010032,0.00000224,-0.
 00001228,-0.00006746,0.00006364,-0.00001864,0.00003673,-0.00003953,0.0
 0007308,0.00026994,0.00022163,0.00009174,-0.00011793,0.00008647,0.0008
 1838,-0.00008914,0.00001548,-0.00003019,0.00001733,0.00021052,0.000039
 51,0.00006510,0.00008226,0.,0.,0.,0.,0.,0.,0.,0.,0.,0.,0.,0.,0.,0.,0.,
 0.,0.,0.,0.,0.,0.,0.,0.,0.,0.,0.,0.,0.,0.,0.,0.,0.,0.,0.,0.,0.,0.,0.,0
 .,0.,0.,0.,0.,0.,0.,0.,0.,0.,0.,0.,0.,0.,0.,0.,0.,0.,0.,0.,0.,0.,0.,0.
 ,0.,0.,0.,0.,0.,0.,0.,0.,0.,0.,0.,0.,0.,0.,0.,0.,0.,0.,0.,0.,0.,0.,0.,
 0.,0.,0.00058712,0.00050075,-0.00046550,-0.14702842,-0.41104887,-0.591
 24827,-0.01782550,-0.05296560,-0.03333147,0.16650753,0.45891573,0.6260
 6657\\0.,0.,0.,0.,0.,0.,0.,0.,0.,0.,0.,0.,0.,0.,0.,0.,0.,0.,0.,0.,0.,0
 .00000002,0.,0.,0.,0.,0.,0.,0.,0.,0.,0.,0.,0.,0.,0.,0.,0.,0.,0.,0.,0.,
 0.,0.,0.,0.,0.,0.,0.,0.,0.,0.,0.,0.,0.,0.,0.,0.,0.,0.,0.,0.,0.,0.,0.,0
 .,0.,0.,0.,0.,0.,0.,0.,0.,0.,0.,0.,0.,0.,0.,0.,0.,0.,0.,0.,0.,0.,0.,0.
 ,0.,0.,0.,0.,0.,0.,0.,0.,0.,0.,0.,0.,0.,0.,0.,0.,0.,0.,0.,0.,0.,0.,0.,
 0.,0.,0.,0.,0.,0.,0.,0.,0.,0.,0.,0.,0.,0.,0.,0.,0.,0.,0.,0.,0.,0.,0.,0
 .,0.,0.,0.,0.,0.,0.,0.,0.,0.,0.,0.,0.,0.,0.,0.,0.,0.,0.,0.,0.,0.,0.,0.
 ,0.,0.,0.,0.,0.,0.,0.,0.,0.,0.,0.,0.,0.,0.,0.,0.,0.,0.,0.,0.,0.,0.,0.,
 0.,0.,0.,0.,0.,0.,0.,0.,0.,0.,0.,0.,0.,0.,0.,0.,0.,0.,0.,0.,0.,0.,0.,0
 .,0.,0.,0.,0.,0.,0.,0.,0.,0.,0.,0.,0.,0.,0.,0.,0.,0.,0.,0.,0.,0.,0.,-0
 .00000002,-0.00000001,0.,0.,0.,0.,0.,0.00000001,0.00000001,0.,0.,0.\\\
 @
 The archive entry for this job was punched.


 WISDOM IS KNOWING WHAT TO DO,
 SKILL IS KNOWING HOW TO DO IT,
 AND VIRTUE IS NOT DOING IT.
 Job cpu time:       0 days 10 hours 54 minutes  0.9 seconds.
 Elapsed time:       0 days  0 hours 32 minutes 52.3 seconds.
 File lengths (MBytes):  RWF=   3746 Int=      0 D2E=      0 Chk=     66 Scr=      1
 Normal termination of Gaussian 16 at Tue Jul  4 11:56:03 2023.
