 Entering Gaussian System, Link 0=g16
 Input=paddle_new_AGE_opt_freq_reposition.com
 Output=paddle_new_AGE_opt_freq_reposition.log
 Initial command:
 /apps/applications/G16/g16.c01/l1.exe "/scratch/x2496a02/MOF_508/Gau-17417.inp" -scrdir="/scratch/x2496a02/MOF_508/"
 Default CPUs for threads: 0-39
 Default is to use a total of  40 processors:
                               40 via shared-memory
                                1 via Linda
 Entering Link 1 = /apps/applications/G16/g16.c01/l1.exe PID=     17418.
  
 Copyright (c) 1988-2019, Gaussian, Inc.  All Rights Reserved.
  
 This is part of the Gaussian(R) 16 program.  It is based on
 the Gaussian(R) 09 system (copyright 2009, Gaussian, Inc.),
 the Gaussian(R) 03 system (copyright 2003, Gaussian, Inc.),
 the Gaussian(R) 98 system (copyright 1998, Gaussian, Inc.),
 the Gaussian(R) 94 system (copyright 1995, Gaussian, Inc.),
 the Gaussian 92(TM) system (copyright 1992, Gaussian, Inc.),
 the Gaussian 90(TM) system (copyright 1990, Gaussian, Inc.),
 the Gaussian 88(TM) system (copyright 1988, Gaussian, Inc.),
 the Gaussian 86(TM) system (copyright 1986, Carnegie Mellon
 University), and the Gaussian 82(TM) system (copyright 1983,
 Carnegie Mellon University). Gaussian is a federally registered
 trademark of Gaussian, Inc.
  
 This software contains proprietary and confidential information,
 including trade secrets, belonging to Gaussian, Inc.
  
 This software is provided under written license and may be
 used, copied, transmitted, or stored only in accord with that
 written license.
  
 The following legend is applicable only to US Government
 contracts under FAR:
  
                    RESTRICTED RIGHTS LEGEND
  
 Use, reproduction and disclosure by the US Government is
 subject to restrictions as set forth in subparagraphs (a)
 and (c) of the Commercial Computer Software - Restricted
 Rights clause in FAR 52.227-19.
  
 Gaussian, Inc.
 340 Quinnipiac St., Bldg. 40, Wallingford CT 06492
  
  
 ---------------------------------------------------------------
 Warning -- This program may not be used in any manner that
 competes with the business of Gaussian, Inc. or will provide
 assistance to any competitor of Gaussian, Inc.  The licensee
 of this program is prohibited from giving any competitor of
 Gaussian, Inc. access to this program.  By using this program,
 the user acknowledges that Gaussian, Inc. is engaged in the
 business of creating and licensing software in the field of
 computational chemistry and represents and warrants to the
 licensee that it is not a competitor of Gaussian, Inc. and that
 it will not use this program in any manner prohibited above.
 ---------------------------------------------------------------
  

 Cite this work as:
 Gaussian 16, Revision C.01,
 M. J. Frisch, G. W. Trucks, H. B. Schlegel, G. E. Scuseria, 
 M. A. Robb, J. R. Cheeseman, G. Scalmani, V. Barone, 
 G. A. Petersson, H. Nakatsuji, X. Li, M. Caricato, A. V. Marenich, 
 J. Bloino, B. G. Janesko, R. Gomperts, B. Mennucci, H. P. Hratchian, 
 J. V. Ortiz, A. F. Izmaylov, J. L. Sonnenberg, D. Williams-Young, 
 F. Ding, F. Lipparini, F. Egidi, J. Goings, B. Peng, A. Petrone, 
 T. Henderson, D. Ranasinghe, V. G. Zakrzewski, J. Gao, N. Rega, 
 G. Zheng, W. Liang, M. Hada, M. Ehara, K. Toyota, R. Fukuda, 
 J. Hasegawa, M. Ishida, T. Nakajima, Y. Honda, O. Kitao, H. Nakai, 
 T. Vreven, K. Throssell, J. A. Montgomery, Jr., J. E. Peralta, 
 F. Ogliaro, M. J. Bearpark, J. J. Heyd, E. N. Brothers, K. N. Kudin, 
 V. N. Staroverov, T. A. Keith, R. Kobayashi, J. Normand, 
 K. Raghavachari, A. P. Rendell, J. C. Burant, S. S. Iyengar, 
 J. Tomasi, M. Cossi, J. M. Millam, M. Klene, C. Adamo, R. Cammi, 
 J. W. Ochterski, R. L. Martin, K. Morokuma, O. Farkas, 
 J. B. Foresman, and D. J. Fox, Gaussian, Inc., Wallingford CT, 2019.
 
 ******************************************
 Gaussian 16:  ES64L-G16RevC.01  3-Jul-2019
                 4-Jul-2023 
 ******************************************
 %nprocshared=20
 Will use up to   20 processors via shared memory.
 %mem=20GB
 %chk=paddle_new_AGE_opt_freq_reposition.chk
 Will use    4 GPUs:
 Thread  CPU   GPU
      0    0     0
      1   10     1
      2   11     2
      3   19     3
      4    1    -1
      5    2    -1
      6    3    -1
      7    4    -1
      8    5    -1
      9    6    -1
     10    7    -1
     11    8    -1
     12    9    -1
     13   12    -1
     14   13    -1
     15   14    -1
     16   15    -1
     17   16    -1
     18   17    -1
     19   18    -1
 SetGPE:  set environment variable "MP_BIND" = "yes"
 SetGPE:  set environment variable "MP_BLIST" = "0,10,11,19,1,2,3,4,5,6,7,8,9,12,13,14,15,16,17,18"
 Properties for Device   0
 Minimum vector length:                              32
 Maximum vector length:                            1024
 Number of SMPs:                                     80
 Maximum number of threads per SMP:                2048
 Number of ASync Engines:                             7
 Memory:                                           3193921536
 Properties for Device   1
 Minimum vector length:                              32
 Maximum vector length:                            1024
 Number of SMPs:                                     80
 Maximum number of threads per SMP:                2048
 Number of ASync Engines:                             7
 Memory:                                           3201261568
 Properties for Device   2
 Minimum vector length:                              32
 Maximum vector length:                            1024
 Number of SMPs:                                     80
 Maximum number of threads per SMP:                2048
 Number of ASync Engines:                             7
 Memory:                                           3201261568
 Properties for Device   3
 Minimum vector length:                              32
 Maximum vector length:                            1024
 Number of SMPs:                                     80
 Maximum number of threads per SMP:                2048
 Number of ASync Engines:                             7
 Memory:                                           3201261568
   2874529382 words of memory will be used on each GPU.
 ----------------------------------------------------------------------
 # opt=(calcall,tight,cartesian) freq b3lyp/gen nosymm scf=(qc,maxcycle
 =1024) pseudo=read
 ----------------------------------------------------------------------
 1/7=10,10=4,18=10,26=3,38=1/1,3;
 2/12=2,15=1,17=6,18=5,29=2,40=1/2;
 3/5=7,11=2,16=1,17=8,25=1,30=1,71=2,74=-5,140=1/1,2,3;
 4//1;
 5/5=2,7=1024,8=3,38=5/8;
 8/6=4,10=90,11=11/1;
 11/6=1,8=1,9=11,15=111,16=1,31=1/1,2,10;
 10/6=1,31=1/2;
 6/7=2,8=2,9=2,10=2,18=1,28=1/1;
 7/7=1,10=1,25=1,30=1/1,2,3,16;
 1/7=10,10=4,18=10,26=3/3(3);
 2/15=1,29=1/2;
 7/7=1,8=1,9=1,25=1,30=1,44=-1/16;
 99/12=1/99;
 2/15=1,29=1/2;
 3/5=7,6=1,11=2,16=1,17=8,25=1,30=1,71=2,74=-5,82=7,140=1/1,2,3;
 4/5=5,16=3,69=1/1;
 5/5=2,7=1024,8=3,38=5/8;
 8/6=4,10=90,11=11/1;
 11/6=1,8=1,9=11,15=111,16=1,31=1/1,2,10;
 10/6=1,31=1/2;
 7/7=1,10=1,25=1,30=1/1,2,3,16;
 1/7=10,10=4,18=10,26=3/3(-8);
 2/15=1,29=1/2;
 6/7=2,8=2,9=2,10=2,18=1,19=2,28=1/1;
 7/7=1,8=1,9=1,25=1,30=1,44=-1/16;
 99/12=1/99;
 ----------------------------------
 paddle_new_AGE_opt_freq_reposition
 ----------------------------------
 Symbolic Z-matrix:
 Charge =  0 Multiplicity = 1
 Zn                   -1   -4.69449  -2.52891   2.32632 
 O                    -1   -4.60002  -0.93173   3.63136 
 O                    0    -2.34252  -0.87474   3.5411 
 O                    -1   -3.7714   -1.27973   0.82823 
 O                    0    -1.52369  -1.12054   0.67927 
 C                    -1   -3.46123  -0.46882   3.94274 
 C                    -1   -2.70354  -0.84264   0.32124 
 Zn                   0    -1.42258  -2.383     2.25532 
 O                    0    -2.28232  -3.9866    0.97873 
 O                    -1   -4.53935  -4.11556   1.01425 
 O                    0    -1.33233  -3.67022   3.8025 
 O                    -1   -3.59321  -3.69443   3.77059 
 C                    -1   -3.3849   -4.48478   0.64137 
 C                    -1   -2.46758  -4.0416    4.21874 
 H                    -1   -3.45541   0.38383   4.64232 
 H                    -1   -2.79074  -0.14615  -0.52756 
 H                    -1   -3.34703  -5.33554  -0.0595 
 H                    -1   -2.45197  -4.74051   5.06989 
 C                    -1   -7.53384  -1.75151   3.14439 
 C                    -1   -8.92519  -1.77977   3.20973 
 C                    -1   -9.61549  -2.73787   2.46521 
 C                    -1   -8.88946  -3.63544   1.68034 
 C                    -1   -7.49932  -3.5449    1.66652 
 N                    -1   -6.83449  -2.61908   2.38606 
 H                    -1   -10.70019  -2.78423   2.49611 
 H                    -1   -6.94295  -1.03037   3.70008 
 H                    -1   -9.44925  -1.06304   3.8329 
 H                    -1   -9.38507  -4.39575   1.08621 
 H                    -1   -6.88162  -4.21449   1.07654 
 C                    0     2.60631   3.45824   3.43349 
 C                    0     3.04306   2.37037   2.7914 
 C                    0     2.3262    1.69871   1.66083 
 O                    0     2.18283   0.3082    1.97917 
 C                    0     1.75606  -0.45899   0.85844 
 C                    0     1.85421  -1.91158   1.22174 
 C                    0     1.13624  -2.94976   0.47528 
 O                    0     0.70067  -2.60834   1.81848 
 H                    0     3.18993   3.93091   4.21936 
 H                    0     1.65042   3.91701   3.18833 
 H                    0     3.99998   1.92455   3.06225 
 H                    0     2.90355   1.80248   0.72676 
 H                    0     1.33488   2.15455   1.50536 
 H                    0     2.4166   -0.27107  -0.00567 
 H                    0     0.72545  -0.20979   0.57183 
 H                    0     2.77328  -2.19357   1.73237 
 H                    0     1.55172  -3.95114   0.39039 
 H                    0     0.44006  -2.64946  -0.30424 
 

 GradGradGradGradGradGradGradGradGradGradGradGradGradGradGradGradGradGrad
 Berny optimization.
 Initialization pass.
 No Z-matrix variables, so optimization will use Cartesian coordinates.
 Trust Radius=3.00D-01 FncErr=1.00D-07 GrdErr=1.00D-06 EigMax=2.50D+02 EigMin=1.00D-04
 Number of steps in this run=    151 maximum allowed number of steps=    282.
 GradGradGradGradGradGradGradGradGradGradGradGradGradGradGradGradGradGrad

 ---------------------------------------------------------------------------------------------------
                            Z-MATRIX (ANGSTROMS AND DEGREES)
   CD    Cent   Atom    N1       Length/X        N2       Alpha/Y        N3        Beta/Z          J
 ---------------------------------------------------------------------------------------------------
      1      1  Zn      -1  -4.694489         -2.528905          2.326317
      2      2  O       -1  -4.600022         -0.931734          3.631360
      3      3  O        0  -2.342520         -0.874744          3.541103
      4      4  O       -1  -3.771400         -1.279734          0.828231
      5      5  O        0  -1.523685         -1.120536          0.679270
      6      6  C       -1  -3.461226         -0.468815          3.942742
      7      7  C       -1  -2.703539         -0.842639          0.321243
      8      8  Zn       0  -1.422580         -2.383004          2.255318
      9      9  O        0  -2.282316         -3.986596          0.978728
     10     10  O       -1  -4.539354         -4.115561          1.014246
     11     11  O        0  -1.332329         -3.670221          3.802497
     12     12  O       -1  -3.593209         -3.694425          3.770586
     13     13  C       -1  -3.384903         -4.484776          0.641370
     14     14  C       -1  -2.467582         -4.041605          4.218740
     15     15  H       -1  -3.455408          0.383834          4.642316
     16     16  H       -1  -2.790739         -0.146153         -0.527563
     17     17  H       -1  -3.347035         -5.335536         -0.059501
     18     18  H       -1  -2.451967         -4.740511          5.069891
     19     19  C       -1  -7.533844         -1.751514          3.144391
     20     20  C       -1  -8.925190         -1.779770          3.209727
     21     21  C       -1  -9.615492         -2.737870          2.465207
     22     22  C       -1  -8.889458         -3.635442          1.680343
     23     23  C       -1  -7.499316         -3.544901          1.666524
     24     24  N       -1  -6.834486         -2.619084          2.386057
     25     25  H       -1 -10.700185         -2.784227          2.496111
     26     26  H       -1  -6.942948         -1.030371          3.700081
     27     27  H       -1  -9.449248         -1.063042          3.832903
     28     28  H       -1  -9.385065         -4.395750          1.086214
     29     29  H       -1  -6.881618         -4.214494          1.076539
     30     30  C        0   2.606311          3.458239          3.433490
     31     31  C        0   3.043065          2.370368          2.791399
     32     32  C        0   2.326202          1.698713          1.660825
     33     33  O        0   2.182833          0.308203          1.979166
     34     34  C        0   1.756059         -0.458987          0.858437
     35     35  C        0   1.854209         -1.911577          1.221735
     36     36  C        0   1.136236         -2.949759          0.475283
     37     37  O        0   0.700671         -2.608337          1.818480
     38     38  H        0   3.189933          3.930911          4.219364
     39     39  H        0   1.650419          3.917008          3.188334
     40     40  H        0   3.999979          1.924553          3.062249
     41     41  H        0   2.903554          1.802483          0.726759
     42     42  H        0   1.334882          2.154549          1.505357
     43     43  H        0   2.416599         -0.271068         -0.005672
     44     44  H        0   0.725453         -0.209789          0.571834
     45     45  H        0   2.773277         -2.193570          1.732374
     46     46  H        0   1.551721         -3.951140          0.390388
     47     47  H        0   0.440059         -2.649459         -0.304240
 ---------------------------------------------------------------------------------------------------
                         Z-Matrix orientation:                         
 ---------------------------------------------------------------------
 Center     Atomic      Atomic             Coordinates (Angstroms)
 Number     Number       Type             X           Y           Z
 ---------------------------------------------------------------------
      1         30           0       -4.694489   -2.528905    2.326317
      2          8           0       -4.600022   -0.931734    3.631360
      3          8           0       -2.342520   -0.874744    3.541103
      4          8           0       -3.771400   -1.279734    0.828231
      5          8           0       -1.523685   -1.120536    0.679270
      6          6           0       -3.461226   -0.468815    3.942742
      7          6           0       -2.703539   -0.842639    0.321243
      8         30           0       -1.422580   -2.383004    2.255318
      9          8           0       -2.282316   -3.986596    0.978728
     10          8           0       -4.539354   -4.115561    1.014246
     11          8           0       -1.332329   -3.670221    3.802497
     12          8           0       -3.593209   -3.694425    3.770586
     13          6           0       -3.384903   -4.484776    0.641370
     14          6           0       -2.467582   -4.041605    4.218740
     15          1           0       -3.455408    0.383834    4.642316
     16          1           0       -2.790739   -0.146153   -0.527563
     17          1           0       -3.347035   -5.335536   -0.059501
     18          1           0       -2.451967   -4.740511    5.069891
     19          6           0       -7.533844   -1.751514    3.144391
     20          6           0       -8.925190   -1.779770    3.209727
     21          6           0       -9.615492   -2.737870    2.465207
     22          6           0       -8.889458   -3.635442    1.680343
     23          6           0       -7.499316   -3.544901    1.666524
     24          7           0       -6.834486   -2.619084    2.386057
     25          1           0      -10.700185   -2.784227    2.496111
     26          1           0       -6.942948   -1.030371    3.700081
     27          1           0       -9.449248   -1.063042    3.832903
     28          1           0       -9.385065   -4.395750    1.086214
     29          1           0       -6.881618   -4.214494    1.076539
     30          6           0        2.606311    3.458239    3.433490
     31          6           0        3.043065    2.370368    2.791399
     32          6           0        2.326202    1.698713    1.660825
     33          8           0        2.182833    0.308203    1.979166
     34          6           0        1.756059   -0.458987    0.858437
     35          6           0        1.854209   -1.911577    1.221735
     36          6           0        1.136236   -2.949759    0.475283
     37          8           0        0.700671   -2.608337    1.818480
     38          1           0        3.189933    3.930911    4.219364
     39          1           0        1.650419    3.917008    3.188334
     40          1           0        3.999979    1.924553    3.062249
     41          1           0        2.903554    1.802483    0.726759
     42          1           0        1.334882    2.154549    1.505357
     43          1           0        2.416599   -0.271068   -0.005672
     44          1           0        0.725453   -0.209789    0.571834
     45          1           0        2.773277   -2.193570    1.732374
     46          1           0        1.551721   -3.951140    0.390388
     47          1           0        0.440059   -2.649459   -0.304240
 ---------------------------------------------------------------------
                    Distance matrix (angstroms):
                    1          2          3          4          5
     1  Zn   0.000000
     2  O    2.064707   0.000000
     3  O    3.121492   2.260024   0.000000
     4  O    2.157958   2.943680   3.092796   0.000000
     5  O    3.840607   4.267825   2.986803   2.258264   0.000000
     6  C    2.894432   1.268112   1.256024   3.233261   3.850851
     7  C    3.290547   3.815948   3.240195   1.260324   1.263909
     8  Zn   3.275930   3.754439   2.185036   2.961543   2.021874
     9  O    3.124010   4.662660   4.031503   3.093077   2.979848
    10  O    2.064721   4.121859   4.659826   2.943853   4.263407
    11  O    3.845235   4.266898   2.983874   4.528770   4.036342
    12  O    2.158047   2.943725   3.093135   3.810504   4.523723
    13  C    2.894735   4.800069   4.746298   3.233665   3.844955
    14  C    3.290690   3.816230   3.240963   4.563269   4.685236
    15  H    3.922145   2.015662   2.008783   4.173075   4.658371
    16  H    4.176889   4.602965   4.157618   2.021108   2.002821
    17  H    3.922364   5.880978   5.819971   4.173450   4.651517
    18  H    4.176997   4.603292   4.158524   5.631124   5.765716
    19  C    3.055408   3.084881   5.279768   4.443327   6.526635
    20  C    4.386393   4.427642   6.652851   5.699396   7.849846
    21  C    4.927396   5.456829   7.584518   6.241736   8.442907
    22  C    4.386282   5.432841   7.344813   5.698243   7.847389
    23  C    3.055263   4.369797   6.102158   4.441967   6.523832
    24  N    2.142729   3.064435   4.955261   3.688248   5.776104
    25  H    6.013518   6.475532   8.636475   7.283775   9.501417
    26  H    3.031237   2.346008   4.605804   4.285840   6.204985
    27  H    5.198681   4.855188   7.115208   6.427516   8.530138
    28  H    5.198506   6.432248   8.247509   6.425679   8.526073
    29  H    3.030955   4.744397   6.150725   4.283448   6.199826
    30  C    9.506493   8.440512   6.578545   8.361277   6.753353
    31  C    9.170001   8.368165   6.332246   7.975851   6.123945
    32  C    8.222271   7.666475   5.652883   6.837040   4.871678
    33  O    7.447634   7.090438   4.931311   6.268898   4.179629
    34  C    6.931724   6.950709   4.916086   5.588143   3.350592
    35  C    6.669831   6.958698   4.905815   5.674641   3.511436
    36  C    6.131949   6.851124   5.080028   5.196003   3.234632
    37  O    5.419590   5.847639   3.903048   4.769193   2.908455
    38  H   10.367110   9.201873   7.359510   9.333315   7.763219
    39  H    9.085743   7.923041   6.247311   7.872251   6.461206
    40  H    9.796359   9.079773   6.949292   8.697852   6.742553
    41  H    8.890993   8.498018   6.527585   7.352916   5.305350
    42  H    7.678674   7.019125   5.181135   6.190874   4.424930
    43  H    7.816877   7.930791   5.966008   6.324882   4.088591
    44  H    6.150795   6.184059   4.321016   4.629493   2.428914
    45  H    7.498850   7.717766   5.584101   6.669735   4.552396
    46  H    6.692213   7.580544   5.878463   5.971912   4.189737
    47  H    5.770437   6.621325   5.067447   4.571108   2.676040
                    6          7          8          9         10
     6  C    0.000000
     7  C    3.718748   0.000000
     8  Zn   3.266129   2.784641   0.000000
     9  O    4.748683   3.239472   2.222687   0.000000
    10  O    4.799709   3.816083   3.775751   2.260998   0.000000
    11  O    3.847190   4.689836   2.014655   2.996037   4.272901
    12  O    3.232896   4.563131   2.954233   3.098108   2.944479
    13  C    5.199310   3.719126   3.297421   1.256062   1.268114
    14  C    3.718646   5.047726   2.774529   3.245771   3.816607
    15  H    1.102927   4.554252   4.181572   5.822257   5.880679
    16  H    4.531809   1.101439   3.823583   4.156490   4.603372
    17  H    6.302060   4.554687   4.216558   2.007781   2.015663
    18  H    4.531717   6.148687   3.813043   4.163506   4.603912
    19  C    4.343835   5.668162   6.207800   6.104444   4.369577
    20  C    5.666641   6.923185   7.587091   7.346782   5.432459
    21  C    6.723594   7.480881   8.203279   7.585803   5.456235
    22  C    6.679197   6.921885   7.592988   6.653563   4.426918
    23  C    5.563240   5.666699   6.214773   5.280648   3.084233
    24  N    4.292529   4.948125   5.418630   4.957108   3.064138
    25  H    7.736692   8.511531   9.289398   8.637631   6.474891
    26  H    3.535056   5.424424   5.864420   6.153578   4.744404
    27  H    6.018436   7.608214   8.286041   8.249751   6.431933
    28  H    7.659794   7.606088   8.295729   7.115336   4.854338
    29  H    5.826175   5.421828   5.877497   4.605983   2.345180
    30  C    7.245419   7.508538   7.193064   9.238512  10.689982
    31  C    7.189739   7.031966   6.543998   8.488607  10.135020
    32  C    6.587841   5.792344   5.573796   7.350268   9.019962
    33  O    6.026175   5.286755   4.507533   6.275646   8.104848
    34  C    6.060784   4.508190   3.969492   5.363485   7.281966
    35  C    6.143231   4.767240   3.468124   4.634177   6.765962
    36  C    6.270168   4.382642   3.168166   3.607629   5.819098
    37  O    5.139205   4.116801   2.179403   3.391606   5.511477
    38  H    7.979475   8.527317   8.062151  10.155498  11.608633
    39  H    6.777425   7.059136   7.071350   9.100314  10.371216
    40  H    7.884989   7.752910   6.972111   8.874118  10.658213
    41  H    7.484101   6.212939   6.210493   7.776257   9.513295
    42  H    5.985444   5.166634   5.362409   7.146686   8.605935
    43  H    7.083636   5.162304   4.930684   6.070749   8.012842
    44  H    5.381301   3.495895   3.488700   4.845256   6.570310
    45  H    6.835900   5.814793   4.232561   5.416821   7.595020
    46  H    7.062255   5.270180   3.844929   3.879077   6.125147
    47  H    6.165394   3.679407   3.176753   3.293215   5.355597
                   11         12         13         14         15
    11  O    0.000000
    12  O    2.261235   0.000000
    13  C    3.856071   3.234198   0.000000
    14  C    1.264905   1.260322   3.719604   0.000000
    15  H    4.652754   4.172661   6.302055   4.554089   0.000000
    16  H    5.770220   5.631010   4.532448   6.148688   5.239305
    17  H    4.663405   4.174136   1.102926   4.555331   7.404730
    18  H    2.001349   2.021119   4.532943   1.101441   5.239144
    19  C    6.524824   4.437976   5.563232   5.662663   4.841191
    20  C    7.847083   5.693021   6.678944   6.916264   6.054090
    21  C    8.442062   6.235937   6.722968   7.474438   7.240958
    22  C    7.849519   5.694106   5.665771   6.917291   7.379483
    23  C    6.527619   4.439269   4.343121   5.663821   6.375225
    24  N    5.777969   3.684991   4.292361   4.944911   5.052365
    25  H    9.499913   7.277490   7.735973   8.504364   8.193266
    26  H    6.201479   4.280526   5.826518   5.418989   3.879525
    27  H    8.525414   6.420378   7.659662   7.600287   6.218900
    28  H    8.529428   6.422095   6.017288   7.601954   8.405422
    29  H    6.206584   4.282756   3.534040   5.420981   6.752651
    30  C    8.152545   9.471446  10.333541   9.088931   6.903453
    31  C    7.526959   9.043266   9.640249   8.574260   7.042894
    32  C    6.840838   8.281090   8.478888   7.904084   6.636657
    33  O    5.613266   7.252095   7.467398   6.750028   6.236012
    34  C    5.340192   6.896618   6.533268   6.478112   6.495189
    35  C    4.461747   6.272922   5.865703   5.674234   6.720217
    36  C    4.205143   5.812160   4.777506   5.309718   7.039901
    37  O    3.032657   4.840218   4.647421   4.225320   5.848088
    38  H    8.854481  10.215584  11.262961   9.775914   7.544614
    39  H    8.175575   9.261132  10.120843   9.019933   6.377057
    40  H    7.764211   9.472653  10.073561   8.874788   7.775167
    41  H    7.573200   9.038186   8.892784   8.671586   7.601352
    42  H    6.805793   7.976706   8.191671   7.759736   5.993565
    43  H    6.333313   7.880183   7.199404   7.477823   7.517523
    44  H    5.162000   6.405119   5.930883   6.178852   5.865220
    45  H    4.829276   6.851206   6.660563   6.088009   7.342158
    46  H    4.476511   6.161327   4.971722   5.551510   7.870339
    47  H    4.587876   5.827814   4.346596   5.554259   6.988844
                   16         17         18         19         20
    16  H    0.000000
    17  H    5.240061   0.000000
    18  H    7.249440   5.240788   0.000000
    19  C    6.209467   6.374912   6.202187   0.000000
    20  C    7.366650   7.378830   7.357229   1.393166   0.000000
    21  C    7.889925   7.239860   7.881056   2.401551   1.395988
    22  C    7.365077   6.052754   7.358771   2.744141   2.404955
    23  C    6.207753   4.840142   6.203880   2.324117   2.744135
    24  N    5.563853   5.051948   5.559666   1.347906   2.398734
    25  H    8.869125   8.192017   8.859147   3.393004   2.160738
    26  H    5.991298   6.752740   5.984182   1.085356   2.175162
    27  H    8.011872   8.404881   8.000991   2.148677   1.084751
    28  H    8.009275   6.217207   8.003524   3.828197   3.400609
    29  H    5.988308   3.878221   5.987100   3.281415   3.828127
    30  C    7.603271  11.179168   9.771565  11.403852  12.667372
    31  C    7.168100  10.408745   9.271003  11.357179  12.674296
    32  C    5.863076   9.199228   8.712992  10.551092  11.878247
    33  O    5.588072   8.160110   7.518209  10.000700  11.369349
    34  C    4.763637   7.117929   7.333163   9.653938  11.016447
    35  C    5.268046   6.357515   6.430733   9.584246  10.961976
    36  C    4.928188   5.106628   6.098559   9.150422  10.491823
    37  O    4.874034   5.229565   5.005693   8.384475   9.761111
    38  H    8.655877  12.120548  10.380173  12.183797  13.431584
    39  H    7.073970  11.006023   9.763322  10.792811  12.012379
    40  H    7.955402  10.790405   9.491118  12.105754  13.446329
    41  H    6.147803   9.520472   9.505534  11.287830  12.606223
    42  H    5.142640   8.970535   8.636433   9.828431  11.119929
    43  H    5.234916   7.672758   8.333078  10.541629  11.884913
    44  H    3.684607   6.577007   7.131336   8.786976  10.127104
    45  H    6.344880   7.109218   6.702918  10.412778  11.798641
    46  H    5.846154   5.110456   6.208895   9.745275  11.064772
    47  H    4.093222   4.649407   6.451170   8.733985  10.040528
                   21         22         23         24         25
    21  C    0.000000
    22  C    1.395984   0.000000
    23  C    2.401540   1.393156   0.000000
    24  N    2.784667   2.398734   1.347911   0.000000
    25  H    1.086123   2.160735   3.392993   3.870790   0.000000
    26  H    3.403375   3.828138   3.281427   2.064566   4.317683
    27  H    2.168704   3.400606   3.828192   3.369215   2.512834
    28  H    2.168706   1.084751   2.148663   3.369212   2.512838
    29  H    3.403364   2.175156   1.085352   2.064556   4.317673
    30  C   13.736878  13.621547  12.421346  11.276507  14.727861
    31  C   13.654287  13.404824  12.140739  11.073615  14.681075
    32  C   12.764574  12.419526  11.137160  10.153203  13.801493
    33  O   12.194887  11.757434  10.425362   9.489289  13.259054
    34  C   11.708424  11.139678   9.789680   8.988721  12.776804
    35  C   11.566461  10.890749   9.505473   8.794864  12.649046
    36  C   10.936377  10.121110   8.737620   8.203220  12.008830
    37  O   10.337227   9.645963   8.254697   7.556510  11.422331
    38  H   14.544023  14.477846  13.291531  12.114142  15.524112
    39  H   13.104620  13.053833  11.904354  10.740473  14.068516
    40  H   14.404017  14.105346  12.810026  11.768071  15.446292
    41  H   13.429949  13.021347  11.734453  10.822798  14.464793
    42  H   12.031948  11.751244  10.514407   9.502725  13.046683
    43  H   12.528430  11.915896  10.575424   9.839518  13.587675
    44  H   10.812548  10.266957   8.942491   8.139336  11.869110
    45  H   12.422355  11.751642  10.361303   9.639371  13.508011
    46  H   11.422939  10.525297   9.149581   8.722702  12.486191
    47  H   10.430329   9.589089   8.229180   7.756135  11.487609
                   26         27         28         29         30
    26  H    0.000000
    27  H    2.510030   0.000000
    28  H    4.911416   4.319185   0.000000
    29  H    4.126181   4.911407   2.510019   0.000000
    30  C   10.554953  12.881693  14.525424  12.427665   0.000000
    31  C   10.588257  12.997343  14.252944  12.033307   1.336599
    32  C    9.875404  12.288468  13.214629  10.958620   2.513311
    33  O    9.382601  11.858413  12.519617  10.170241   3.495300
    34  C    9.169195  11.609101  11.818402   9.421298   4.764293
    35  C    9.181977  11.632126  11.511332   9.035440   5.855975
    36  C    8.908231  11.264359  10.637758   8.139229   7.209338
    37  O    8.028406  10.462633  10.269037   7.785970   6.560721
    38  H   11.294213  13.595507  15.403911  13.328958   1.087029
    39  H    9.928968  12.182733  13.975076  11.973999   1.088255
    40  H   11.352800  13.798599  14.933531  12.650695   2.105308
    41  H   10.668613  13.055692  13.767987  11.492430   3.186891
    42  H    9.136903  11.492076  12.569780  10.404781   2.652138
    43  H   10.095061  12.496408  12.549282  10.157688   5.076569
    44  H    8.322479  10.718542  10.954882   8.611615   5.018080
    45  H    9.981479  12.453129  12.373051   9.885912   5.904627
    46  H    9.573106  11.883322  10.967914   8.465304   8.079080
    47  H    8.553644  10.836561  10.075513   7.613333   7.481126
                   31         32         33         34         35
    31  C    0.000000
    32  C    1.497735   0.000000
    33  O    2.377445   1.433671   0.000000
    34  C    3.660325   2.371615   1.423640   0.000000
    35  C    4.712990   3.667393   2.368358   1.500545   0.000000
    36  C    6.107712   4.942653   3.737826   2.595175   1.466458
    37  O    5.587565   4.606288   3.275489   2.579774   1.473848
    38  H    2.120365   3.503550   4.376843   5.711657   6.701090
    39  H    2.118753   2.776833   3.843049   4.958721   6.154790
    40  H    1.089860   2.194658   2.662269   3.946293   4.765261
    41  H    2.145855   1.102988   2.078662   2.539356   3.891063
    42  H    2.149040   1.102122   2.086267   2.725154   4.108956
    43  H    3.897852   2.581748   2.080813   1.103771   2.124636
    44  H    4.117645   2.718580   2.091137   1.098358   2.143022
    45  H    4.692957   3.918528   2.582324   2.192550   1.088558
    46  H    6.924624   5.842488   4.589610   3.529300   2.223163
    47  H    6.446494   5.130849   4.122981   2.807462   2.207462
                   36         37         38         39         40
    36  C    0.000000
    37  O    1.452744   0.000000
    38  H    8.098113   7.397461   0.000000
    39  H    7.401184   6.734883   1.852922   0.000000
    40  H    6.217100   5.742777   2.453683   3.083214   0.000000
    41  H    5.076461   5.049741   4.100062   3.478637   2.582937
    42  H    5.210995   4.815117   3.736644   2.457282   3.095085
    43  H    3.007662   3.425604   6.008794   5.322470   4.091452
    44  H    2.772274   2.703289   6.043470   4.973137   4.634663
    45  H    2.198182   2.115453   6.623291   6.381206   4.498033
    46  H    1.087474   2.137020   8.914680   8.351407   6.903374
    47  H    1.087428   2.139053   8.445476   7.535352   6.702825
                   41         42         43         44         45
    41  H    0.000000
    42  H    1.786308   0.000000
    43  H    2.252375   3.055640   0.000000
    44  H    2.969405   2.613994   1.788084   0.000000
    45  H    4.122702   4.585483   2.616111   3.078283   0.000000
    46  H    5.919863   6.210444   3.801027   3.835798   2.526297
    47  H    5.191489   5.210935   3.106863   2.607862   3.130421
                   46         47
    46  H    0.000000
    47  H    1.847342   0.000000
 Symmetry turned off by external request.
 Stoichiometry    C15H19NO10Zn2
 Framework group  C1[X(C15H19NO10Zn2)]
 Deg. of freedom   135
 Full point group                 C1      NOp   1
 Rotational constants (GHZ):           0.3030737           0.0763057           0.0695980
 General basis read from cards:  (5D, 7F)
 ======================================================================================================
                                       Pseudopotential Parameters
 ======================================================================================================
  Center     Atomic      Valence      Angular      Power
  Number     Number     Electrons     Momentum     of R      Exponent        Coefficient   SO-Coeffient
 ======================================================================================================
    1         30           12
                                      F and up 
                                                     1      386.7379660      -18.00000000    0.00000000
                                                     2       72.8587359     -124.35274030    0.00000000
                                                     2       15.9066170      -30.66018220    0.00000000
                                                     2        4.3502340      -10.63589890    0.00000000
                                                     2        1.2842199       -0.76836230    0.00000000
                                      S - F
                                                     0       19.0867858        3.00000000    0.00000000
                                                     1        5.0231080       22.52342250    0.00000000
                                                     2        1.2701744       48.44659420    0.00000000
                                                     2        1.0671287      -44.55601190    0.00000000
                                                     2        0.9264190       12.99839580    0.00000000
                                      P - F
                                                     0       43.4927750        5.00000000    0.00000000
                                                     1       20.8692669       20.74355890    0.00000000
                                                     2       21.7118378       90.30271580    0.00000000
                                                     2        6.3616915       74.66103160    0.00000000
                                                     2        1.2291195        9.88944240    0.00000000
                                      D - F
                                                     2       13.5851800       -4.84903590    0.00000000
                                                     2        9.8373050        3.69133790    0.00000000
                                                     2        0.8373113       -0.50373190    0.00000000
    2          8
                                   No pseudopotential on this center.
    3          8
                                   No pseudopotential on this center.
    4          8
                                   No pseudopotential on this center.
    5          8
                                   No pseudopotential on this center.
    6          6
                                   No pseudopotential on this center.
    7          6
                                   No pseudopotential on this center.
    8         30           12
                                      F and up 
                                                     1      386.7379660      -18.00000000    0.00000000
                                                     2       72.8587359     -124.35274030    0.00000000
                                                     2       15.9066170      -30.66018220    0.00000000
                                                     2        4.3502340      -10.63589890    0.00000000
                                                     2        1.2842199       -0.76836230    0.00000000
                                      S - F
                                                     0       19.0867858        3.00000000    0.00000000
                                                     1        5.0231080       22.52342250    0.00000000
                                                     2        1.2701744       48.44659420    0.00000000
                                                     2        1.0671287      -44.55601190    0.00000000
                                                     2        0.9264190       12.99839580    0.00000000
                                      P - F
                                                     0       43.4927750        5.00000000    0.00000000
                                                     1       20.8692669       20.74355890    0.00000000
                                                     2       21.7118378       90.30271580    0.00000000
                                                     2        6.3616915       74.66103160    0.00000000
                                                     2        1.2291195        9.88944240    0.00000000
                                      D - F
                                                     2       13.5851800       -4.84903590    0.00000000
                                                     2        9.8373050        3.69133790    0.00000000
                                                     2        0.8373113       -0.50373190    0.00000000
    9          8
                                   No pseudopotential on this center.
   10          8
                                   No pseudopotential on this center.
   11          8
                                   No pseudopotential on this center.
   12          8
                                   No pseudopotential on this center.
   13          6
                                   No pseudopotential on this center.
   14          6
                                   No pseudopotential on this center.
   15          1
                                   No pseudopotential on this center.
   16          1
                                   No pseudopotential on this center.
   17          1
                                   No pseudopotential on this center.
   18          1
                                   No pseudopotential on this center.
   19          6
                                   No pseudopotential on this center.
   20          6
                                   No pseudopotential on this center.
   21          6
                                   No pseudopotential on this center.
   22          6
                                   No pseudopotential on this center.
   23          6
                                   No pseudopotential on this center.
   24          7
                                   No pseudopotential on this center.
   25          1
                                   No pseudopotential on this center.
   26          1
                                   No pseudopotential on this center.
   27          1
                                   No pseudopotential on this center.
   28          1
                                   No pseudopotential on this center.
   29          1
                                   No pseudopotential on this center.
   30          6
                                   No pseudopotential on this center.
   31          6
                                   No pseudopotential on this center.
   32          6
                                   No pseudopotential on this center.
   33          8
                                   No pseudopotential on this center.
   34          6
                                   No pseudopotential on this center.
   35          6
                                   No pseudopotential on this center.
   36          6
                                   No pseudopotential on this center.
   37          8
                                   No pseudopotential on this center.
   38          1
                                   No pseudopotential on this center.
   39          1
                                   No pseudopotential on this center.
   40          1
                                   No pseudopotential on this center.
   41          1
                                   No pseudopotential on this center.
   42          1
                                   No pseudopotential on this center.
   43          1
                                   No pseudopotential on this center.
   44          1
                                   No pseudopotential on this center.
   45          1
                                   No pseudopotential on this center.
   46          1
                                   No pseudopotential on this center.
   47          1
                                   No pseudopotential on this center.
 ======================================================================================================
   599 basis functions,  1043 primitive gaussians,   629 cartesian basis functions
   110 alpha electrons      110 beta electrons
       nuclear repulsion energy      3000.9726206136 Hartrees.
 NAtoms=   47 NActive=   47 NUniq=   47 SFac= 1.00D+00 NAtFMM=   60 NAOKFM=F Big=F
 Integral buffers will be    131072 words long.
 Raffenetti 2 integral format.
 Two-electron integral symmetry is turned off.
 One-electron integrals computed using PRISM.
   1 Symmetry operations used in ECPInt.
 ECPInt:  NShTT=   19900 NPrTT=   91917 LenC2=   15703 LenP2D=   43696.
 LDataN:  DoStor=T MaxTD1= 5 Len=  102
 NBasis=   599 RedAO= T EigKep=  7.37D-06  NBF=   599
 NBsUse=   599 1.00D-06 EigRej= -1.00D+00 NBFU=   599
 ExpMin= 3.51D-02 ExpMax= 5.48D+03 ExpMxC= 8.25D+02 IAcc=3 IRadAn=         5 AccDes= 0.00D+00
 Harris functional with IExCor=  402 and IRadAn=       5 diagonalized for initial guess.
 HarFok:  IExCor=  402 AccDes= 0.00D+00 IRadAn=         5 IDoV= 1 UseB2=F ITyADJ=14
 ICtDFT=  3500011 ScaDFX=  1.000000  1.000000  1.000000  1.000000
 FoFCou: FMM=F IPFlag=           0 FMFlag=      100000 FMFlg1=           0
         NFxFlg=           0 DoJE=T BraDBF=F KetDBF=T FulRan=T
         wScrn=  0.000000 ICntrl=       500 IOpCl=  0 I1Cent=   200000004 NGrid=           0
         NMat0=    1 NMatS0=      1 NMatT0=    0 NMatD0=    1 NMtDS0=    0 NMtDT0=    0
 Symmetry not used in FoFCou.
 Gradient too large for Newton-Raphson -- use scaled steepest descent instead.
     Accept linear search using points  2 and  3.
 Gradient too large for Newton-Raphson -- use scaled steepest descent instead.
     Accept linear search using points  2 and  3.
 Gradient too large for Newton-Raphson -- use scaled steepest descent instead.
     Accept linear search using points  2 and  3.
 Gradient too large for Newton-Raphson -- use scaled steepest descent instead.
     Accept linear search using points  1 and  2.
 Gradient too large for Newton-Raphson -- use scaled steepest descent instead.
     Accept linear search using points  2 and  3.
     Minimum is close to point  3 DX= -6.17D-02 DF= -7.56D-08 DXR=  7.36D-02 DFR=  2.31D-04 which will be used.
 LinEq1:  Iter=  0 NonCon=     1 RMS=2.81D-05 Max=1.52D-03 NDo=     1
 AX will form     1 AO Fock derivatives at one time.
 LinEq1:  Iter=  1 NonCon=     1 RMS=2.17D-05 Max=1.14D-03 NDo=     1
 LinEq1:  Iter=  2 NonCon=     1 RMS=2.03D-05 Max=8.55D-04 NDo=     1
 LinEq1:  Iter=  3 NonCon=     1 RMS=5.45D-06 Max=1.59D-04 NDo=     1
 LinEq1:  Iter=  4 NonCon=     1 RMS=3.77D-06 Max=3.04D-04 NDo=     1
 LinEq1:  Iter=  5 NonCon=     1 RMS=3.11D-06 Max=1.20D-04 NDo=     1
 LinEq1:  Iter=  6 NonCon=     1 RMS=1.44D-06 Max=7.32D-05 NDo=     1
 LinEq1:  Iter=  7 NonCon=     1 RMS=9.44D-07 Max=1.03D-04 NDo=     1
 LinEq1:  Iter=  8 NonCon=     1 RMS=6.00D-07 Max=5.74D-05 NDo=     1
 LinEq1:  Iter=  9 NonCon=     1 RMS=3.38D-07 Max=2.48D-05 NDo=     1
 LinEq1:  Iter= 10 NonCon=     1 RMS=2.35D-07 Max=1.28D-05 NDo=     1
 LinEq1:  Iter= 11 NonCon=     1 RMS=1.29D-07 Max=5.55D-06 NDo=     1
 LinEq1:  Iter= 12 NonCon=     1 RMS=1.03D-07 Max=4.23D-06 NDo=     1
 LinEq1:  Iter= 13 NonCon=     1 RMS=5.21D-08 Max=1.42D-06 NDo=     1
 LinEq1:  Iter= 14 NonCon=     1 RMS=3.27D-08 Max=1.31D-06 NDo=     1
 LinEq1:  Iter= 15 NonCon=     1 RMS=2.21D-08 Max=7.06D-07 NDo=     1
 LinEq1:  Iter= 16 NonCon=     0 RMS=9.63D-09 Max=3.06D-07 NDo=     1
 Linear equations converged to 3.280D-08 3.280D-07 after    16 iterations.
     Accept linear search using points  1 and  2.
     Minimum is close to point  2 DX= -3.18D-04 DF= -2.27D-12 DXR=  3.18D-04 DFR=  1.01D-07 which will be used.
 SCF Done:  E(RB3LYP) =  -1521.47024103     a.u. after    7 cycles
            Convg  =    0.3208D-05                    31 Fock formations.
              S**2 =  0.0000                  -V/T =  1.9446
 DoSCS=F DFT=T ScalE2(SS,OS)=  1.000000  1.000000
 Range of M.O.s used for correlation:     1   599
 NBasis=   599 NAE=   110 NBE=   110 NFC=     0 NFV=     0
 NROrb=    599 NOA=   110 NOB=   110 NVA=   489 NVB=   489

 **** Warning!!: The largest alpha MO coefficient is  0.80378885D+02

   1 Symmetry operations used in ECPInt.
 ECPInt:  NShTT=   19900 NPrTT=   91917 LenC2=   15703 LenP2D=   43696.
 LDataN:  DoStor=T MaxTD1= 6 Len=  172
 Number of processors reduced to   9 by ecpmxn.
 Symmetrizing basis deriv contribution to polar:
 IMax=3 JMax=2 DiffMx= 0.00D+00
 G2DrvN: will do    48 centers at a time, making    1 passes.
 Calling FoFCou, ICntrl=  3107 FMM=F I1Cent=   0 AccDes= 0.00D+00.
 End of G2Drv F.D. properties file   721 does not exist.
 End of G2Drv F.D. properties file   722 does not exist.
 End of G2Drv F.D. properties file   788 does not exist.
          IDoAtm=00101001101000000000000000000111111111111111111
          Differentiating once with respect to electric field.
                with respect to dipole field.
          Differentiating once with respect to nuclear coordinates.
 CalDSu exits because no D1Ps are significant.
          There are    72 degrees of freedom in the 1st order CPHF.  IDoFFX=6 NUNeed=     3.
     72 vectors produced by pass  0 Test12= 7.47D-14 1.39D-09 XBig12= 2.53D+02 5.45D+00.
 AX will form    72 AO Fock derivatives at one time.
     72 vectors produced by pass  1 Test12= 7.47D-14 1.39D-09 XBig12= 1.36D+02 3.11D+00.
     72 vectors produced by pass  2 Test12= 7.47D-14 1.39D-09 XBig12= 1.00D+01 8.03D-01.
     72 vectors produced by pass  3 Test12= 7.47D-14 1.39D-09 XBig12= 2.45D+00 5.64D-01.
     72 vectors produced by pass  4 Test12= 7.47D-14 1.39D-09 XBig12= 9.48D-02 3.86D-02.
     72 vectors produced by pass  5 Test12= 7.47D-14 1.39D-09 XBig12= 1.00D-03 2.85D-03.
     39 vectors produced by pass  6 Test12= 7.47D-14 1.39D-09 XBig12= 4.52D-06 2.00D-04.
     18 vectors produced by pass  7 Test12= 7.47D-14 1.39D-09 XBig12= 1.79D-08 8.65D-06.
      6 vectors produced by pass  8 Test12= 7.47D-14 1.39D-09 XBig12= 1.02D-10 1.10D-06.
      3 vectors produced by pass  9 Test12= 7.47D-14 1.39D-09 XBig12= 5.69D-13 6.38D-08.
      1 vectors produced by pass 10 Test12= 7.47D-14 1.39D-09 XBig12= 3.39D-15 4.64D-09.
 InvSVY:  IOpt=1 It=  1 EMax= 1.07D-14
 Solved reduced A of dimension   499 with    72 vectors.
 Isotropic polarizability for W=    0.000000      250.58 Bohr**3.
 End of Minotr F.D. properties file   721 does not exist.
 End of Minotr F.D. properties file   722 does not exist.
 End of Minotr F.D. properties file   788 does not exist.

 **********************************************************************

            Population analysis using the SCF Density.

 **********************************************************************

 Alpha  occ. eigenvalues --  -19.19979 -19.16276 -19.13975 -19.13206 -19.12891
 Alpha  occ. eigenvalues --  -19.12797 -19.12765 -19.12432 -19.12348 -19.12341
 Alpha  occ. eigenvalues --  -14.38829 -10.30136 -10.29244 -10.29154 -10.29040
 Alpha  occ. eigenvalues --  -10.26838 -10.25970 -10.25414 -10.25405 -10.24719
 Alpha  occ. eigenvalues --  -10.24270 -10.23944 -10.22733 -10.22727 -10.19701
 Alpha  occ. eigenvalues --  -10.18977  -1.09614  -1.06553  -1.05564  -1.05249
 Alpha  occ. eigenvalues --   -1.05009  -1.04451  -0.98325  -0.97872  -0.96936
 Alpha  occ. eigenvalues --   -0.96759  -0.96663  -0.83773  -0.80160  -0.79577
 Alpha  occ. eigenvalues --   -0.75892  -0.69973  -0.66598  -0.66466  -0.66080
 Alpha  occ. eigenvalues --   -0.62498  -0.62428  -0.61517  -0.60466  -0.60360
 Alpha  occ. eigenvalues --   -0.60219  -0.59960  -0.59894  -0.59647  -0.59171
 Alpha  occ. eigenvalues --   -0.59121  -0.58640  -0.57301  -0.57241  -0.56868
 Alpha  occ. eigenvalues --   -0.55951  -0.54632  -0.53520  -0.51388  -0.51351
 Alpha  occ. eigenvalues --   -0.50296  -0.49873  -0.48644  -0.48458  -0.47506
 Alpha  occ. eigenvalues --   -0.47216  -0.46938  -0.46526  -0.46086  -0.45922
 Alpha  occ. eigenvalues --   -0.45438  -0.44884  -0.44093  -0.43787  -0.43363
 Alpha  occ. eigenvalues --   -0.42656  -0.42622  -0.42212  -0.41221  -0.40834
 Alpha  occ. eigenvalues --   -0.39700  -0.39403  -0.39190  -0.38548  -0.36646
 Alpha  occ. eigenvalues --   -0.35412  -0.34435  -0.33800  -0.32545  -0.32292
 Alpha  occ. eigenvalues --   -0.31084  -0.29797  -0.29612  -0.29504  -0.29134
 Alpha  occ. eigenvalues --   -0.28575  -0.28036  -0.27966  -0.27888  -0.27426
 Alpha  occ. eigenvalues --   -0.27189  -0.27022  -0.26895  -0.26638  -0.25237
 Alpha virt. eigenvalues --   -0.06989  -0.04676  -0.01104  -0.00706  -0.00217
 Alpha virt. eigenvalues --    0.00963   0.01234   0.01466   0.01676   0.01876
 Alpha virt. eigenvalues --    0.01963   0.02066   0.02226   0.02652   0.03218
 Alpha virt. eigenvalues --    0.03376   0.03398   0.03658   0.03821   0.04125
 Alpha virt. eigenvalues --    0.04532   0.04819   0.04976   0.05594   0.05889
 Alpha virt. eigenvalues --    0.06077   0.06519   0.06840   0.06908   0.07688
 Alpha virt. eigenvalues --    0.07835   0.08046   0.08402   0.08729   0.09037
 Alpha virt. eigenvalues --    0.09190   0.09316   0.09441   0.09546   0.10395
 Alpha virt. eigenvalues --    0.10488   0.10774   0.11424   0.11726   0.12070
 Alpha virt. eigenvalues --    0.12536   0.12779   0.12959   0.13122   0.13312
 Alpha virt. eigenvalues --    0.13679   0.13944   0.14329   0.14506   0.14902
 Alpha virt. eigenvalues --    0.15200   0.15776   0.16019   0.16252   0.16445
 Alpha virt. eigenvalues --    0.16635   0.17051   0.17380   0.17548   0.17784
 Alpha virt. eigenvalues --    0.17860   0.18526   0.18664   0.19139   0.19306
 Alpha virt. eigenvalues --    0.19724   0.20013   0.20181   0.20241   0.20644
 Alpha virt. eigenvalues --    0.20747   0.21211   0.21665   0.21838   0.22054
 Alpha virt. eigenvalues --    0.22533   0.22863   0.23015   0.23153   0.23650
 Alpha virt. eigenvalues --    0.23817   0.24228   0.24586   0.24885   0.25405
 Alpha virt. eigenvalues --    0.25784   0.25910   0.26019   0.26183   0.26917
 Alpha virt. eigenvalues --    0.27021   0.27283   0.27450   0.27775   0.27795
 Alpha virt. eigenvalues --    0.28465   0.29226   0.29294   0.29430   0.30203
 Alpha virt. eigenvalues --    0.30795   0.31211   0.31354   0.31667   0.31964
 Alpha virt. eigenvalues --    0.32190   0.32588   0.32717   0.33075   0.33251
 Alpha virt. eigenvalues --    0.33532   0.33890   0.34022   0.34735   0.34972
 Alpha virt. eigenvalues --    0.35151   0.35506   0.35977   0.36024   0.36519
 Alpha virt. eigenvalues --    0.36783   0.36896   0.37149   0.37855   0.38143
 Alpha virt. eigenvalues --    0.38687   0.39070   0.39330   0.39432   0.39699
 Alpha virt. eigenvalues --    0.40095   0.40361   0.41326   0.41617   0.41779
 Alpha virt. eigenvalues --    0.42251   0.42652   0.43013   0.43686   0.44131
 Alpha virt. eigenvalues --    0.45102   0.45333   0.46042   0.46650   0.47024
 Alpha virt. eigenvalues --    0.47234   0.47783   0.48155   0.48526   0.49153
 Alpha virt. eigenvalues --    0.51601   0.51801   0.52509   0.53412   0.54113
 Alpha virt. eigenvalues --    0.54797   0.55755   0.56736   0.57439   0.58334
 Alpha virt. eigenvalues --    0.60931   0.61908   0.63201   0.65233   0.65497
 Alpha virt. eigenvalues --    0.66052   0.67027   0.67530   0.68235   0.68820
 Alpha virt. eigenvalues --    0.69316   0.70502   0.71356   0.71621   0.72604
 Alpha virt. eigenvalues --    0.72810   0.73132   0.73665   0.74155   0.76299
 Alpha virt. eigenvalues --    0.76710   0.77805   0.79084   0.80075   0.80615
 Alpha virt. eigenvalues --    0.81201   0.81492   0.84794   0.85130   0.86256
 Alpha virt. eigenvalues --    0.87055   0.87367   0.87606   0.88979   0.89446
 Alpha virt. eigenvalues --    0.89918   0.90612   0.90825   0.91098   0.91566
 Alpha virt. eigenvalues --    0.92559   0.93308   0.93734   0.94755   0.95346
 Alpha virt. eigenvalues --    0.95664   0.96199   0.97552   0.97994   0.98942
 Alpha virt. eigenvalues --    1.00035   1.00165   1.00517   1.01973   1.02293
 Alpha virt. eigenvalues --    1.03328   1.03513   1.04605   1.05879   1.06105
 Alpha virt. eigenvalues --    1.07502   1.07708   1.10324   1.11290   1.11849
 Alpha virt. eigenvalues --    1.12925   1.13942   1.14055   1.15032   1.15804
 Alpha virt. eigenvalues --    1.16553   1.17406   1.17479   1.17729   1.18285
 Alpha virt. eigenvalues --    1.19279   1.19720   1.20808   1.21225   1.21751
 Alpha virt. eigenvalues --    1.22072   1.23054   1.23833   1.24871   1.25544
 Alpha virt. eigenvalues --    1.26150   1.26558   1.27055   1.27323   1.27481
 Alpha virt. eigenvalues --    1.28173   1.29023   1.30620   1.33094   1.33777
 Alpha virt. eigenvalues --    1.34169   1.34234   1.34990   1.35573   1.36311
 Alpha virt. eigenvalues --    1.36506   1.36699   1.37472   1.37701   1.39020
 Alpha virt. eigenvalues --    1.39683   1.39832   1.40273   1.41549   1.41930
 Alpha virt. eigenvalues --    1.42303   1.43559   1.43919   1.44571   1.44842
 Alpha virt. eigenvalues --    1.45332   1.46191   1.47228   1.47293   1.48808
 Alpha virt. eigenvalues --    1.49348   1.50489   1.51752   1.52513   1.53285
 Alpha virt. eigenvalues --    1.54003   1.54727   1.55182   1.55504   1.56482
 Alpha virt. eigenvalues --    1.56963   1.58191   1.58876   1.59524   1.60629
 Alpha virt. eigenvalues --    1.61057   1.61879   1.65297   1.66016   1.66905
 Alpha virt. eigenvalues --    1.68120   1.70068   1.70546   1.71178   1.72137
 Alpha virt. eigenvalues --    1.73800   1.74646   1.77340   1.78699   1.79352
 Alpha virt. eigenvalues --    1.80284   1.80731   1.81416   1.82684   1.82707
 Alpha virt. eigenvalues --    1.83381   1.83542   1.83827   1.83868   1.84706
 Alpha virt. eigenvalues --    1.85708   1.86615   1.87566   1.88077   1.88877
 Alpha virt. eigenvalues --    1.89654   1.89885   1.90267   1.90582   1.91481
 Alpha virt. eigenvalues --    1.91785   1.92616   1.93122   1.94276   1.94578
 Alpha virt. eigenvalues --    1.94668   1.95071   1.95411   1.96017   1.96278
 Alpha virt. eigenvalues --    1.96937   1.97028   1.97266   1.97678   1.97801
 Alpha virt. eigenvalues --    1.98549   1.98873   1.99411   1.99964   2.01161
 Alpha virt. eigenvalues --    2.01497   2.01739   2.02938   2.03800   2.04861
 Alpha virt. eigenvalues --    2.05820   2.06857   2.07219   2.08755   2.09250
 Alpha virt. eigenvalues --    2.10141   2.11306   2.12469   2.13482   2.14364
 Alpha virt. eigenvalues --    2.17166   2.17655   2.18864   2.19677   2.21204
 Alpha virt. eigenvalues --    2.22237   2.22477   2.23078   2.24340   2.25158
 Alpha virt. eigenvalues --    2.25496   2.25957   2.26803   2.26863   2.27282
 Alpha virt. eigenvalues --    2.27456   2.27748   2.28070   2.28721   2.29631
 Alpha virt. eigenvalues --    2.30259   2.32860   2.32877   2.33850   2.34647
 Alpha virt. eigenvalues --    2.34905   2.35159   2.36332   2.37864   2.38807
 Alpha virt. eigenvalues --    2.42873   2.44971   2.45307   2.47246   2.47676
 Alpha virt. eigenvalues --    2.50351   2.50569   2.51136   2.52144   2.52359
 Alpha virt. eigenvalues --    2.54494   2.54669   2.56485   2.57311   2.57544
 Alpha virt. eigenvalues --    2.58407   2.58851   2.58973   2.59250   2.60451
 Alpha virt. eigenvalues --    2.63163   2.64839   2.66040   2.66693   2.66752
 Alpha virt. eigenvalues --    2.68333   2.68832   2.69785   2.69970   2.70586
 Alpha virt. eigenvalues --    2.71045   2.71172   2.72842   2.75075   2.76150
 Alpha virt. eigenvalues --    2.77127   2.78359   2.80996   2.81184   2.82014
 Alpha virt. eigenvalues --    2.82306   2.82525   2.83674   2.84239   2.85770
 Alpha virt. eigenvalues --    2.86548   2.89346   2.93122   2.96120   2.97089
 Alpha virt. eigenvalues --    2.98957   3.02073   3.02989   3.03734   3.04761
 Alpha virt. eigenvalues --    3.05554   3.06010   3.07010   3.07474   3.07686
 Alpha virt. eigenvalues --    3.07890   3.08655   3.14163   3.16127   3.16759
 Alpha virt. eigenvalues --    3.17450   3.23960   3.24931   3.26354   3.27042
 Alpha virt. eigenvalues --    3.30355   3.31055   3.33530   3.35423   3.41547
 Alpha virt. eigenvalues --    3.41809   3.44710   3.46095   3.48833   3.49299
 Alpha virt. eigenvalues --    3.49437   3.49551   3.50577   3.55615   3.55832
 Alpha virt. eigenvalues --    3.68417   3.90613  11.19012  11.56694
          Condensed to atoms (all electrons):
               1          2          3          4          5          6
     1  Zn  11.873609   0.137227  -0.061045   0.009725  -0.014903  -0.124697
     2  O    0.137227   8.533961  -0.204822  -0.042201   0.007732   0.267049
     3  O   -0.061045  -0.204822   8.459706   0.005720  -0.023895   0.300259
     4  O    0.009725  -0.042201   0.005720   8.503864  -0.229251   0.036028
     5  O   -0.014903   0.007732  -0.023895  -0.229251   8.567949   0.001145
     6  C   -0.124697   0.267049   0.300259   0.036028   0.001145   4.767427
     7  C   -0.100442   0.002837   0.016519   0.285401   0.242593  -0.039044
     8  Zn   0.080898  -0.059741   0.042364  -0.045341   0.165025  -0.109203
     9  O   -0.058064   0.001177  -0.004296   0.013388  -0.041995   0.011591
    10  O    0.142470   0.010531   0.001452  -0.042442   0.007170   0.002491
    11  O   -0.016577   0.006585  -0.020579   0.000330   0.012519   0.006094
    12  O    0.022166  -0.041654   0.002046  -0.002522  -0.000514   0.031503
    13  C   -0.131967   0.000995   0.010075   0.028822   0.003300  -0.002156
    14  C   -0.097007   0.003154   0.022306   0.015359  -0.000408  -0.014365
    15  H    0.016840  -0.114716  -0.090257  -0.002157  -0.000327   0.453029
    16  H    0.003038  -0.000622  -0.002165  -0.092713  -0.115823  -0.000722
    17  H    0.016381   0.000043  -0.000047  -0.001872  -0.000668   0.000234
    18  H    0.004755  -0.000564  -0.002528  -0.000124   0.000061  -0.000797
    19  C    0.019003   0.049634   0.000290  -0.006357   0.001779  -0.006066
    20  C   -0.094653  -0.003798   0.002045  -0.010788  -0.000379  -0.043532
    21  C   -0.096723   0.003166   0.000115   0.000284   0.000093   0.002424
    22  C   -0.098456  -0.003897   0.000517  -0.010906  -0.000615  -0.021710
    23  C    0.004168  -0.013540  -0.002520  -0.004703   0.001309  -0.005712
    24  N   -0.116301  -0.035710  -0.001095   0.026497   0.000252   0.022781
    25  H    0.000831   0.000004   0.000000  -0.000000  -0.000000  -0.000001
    26  H   -0.011105  -0.003782  -0.000054   0.000292   0.000002   0.002928
    27  H    0.003131   0.000424   0.000001   0.000006   0.000000   0.000331
    28  H    0.003081   0.000011   0.000000   0.000006   0.000000   0.000017
    29  H   -0.012164   0.000370   0.000000   0.000294   0.000001   0.000343
    30  C   -0.000136  -0.000010   0.000160  -0.000025  -0.000248  -0.000027
    31  C    0.000329   0.000003  -0.000000  -0.000032  -0.000323   0.000378
    32  C   -0.000072  -0.000039  -0.000849  -0.000219   0.005561  -0.002107
    33  O    0.000191   0.000013  -0.000149  -0.000001   0.001702  -0.000193
    34  C    0.007125  -0.000211   0.002053  -0.007116  -0.032129  -0.000361
    35  C   -0.016501   0.000502   0.004444   0.004660   0.011499  -0.005092
    36  C    0.014389  -0.000553  -0.007942  -0.002675  -0.020661   0.001179
    37  O   -0.001614   0.000100   0.009427   0.001109  -0.013654  -0.000240
    38  H    0.000000  -0.000000  -0.000000  -0.000000  -0.000000   0.000001
    39  H    0.000003   0.000000  -0.000003   0.000000  -0.000001   0.000013
    40  H    0.000001  -0.000000  -0.000000  -0.000000  -0.000001   0.000000
    41  H    0.000000  -0.000000   0.000002  -0.000000   0.000057  -0.000001
    42  H    0.000030   0.000000   0.000004  -0.000001  -0.000197   0.000027
    43  H    0.000041  -0.000000  -0.000004   0.000000   0.001052  -0.000006
    44  H   -0.000027   0.000001   0.000356  -0.000140  -0.009766   0.000445
    45  H    0.000051  -0.000000   0.000044  -0.000000   0.000067   0.000027
    46  H   -0.000135   0.000000   0.000028   0.000017   0.001586   0.000022
    47  H    0.000433   0.000001   0.000000  -0.000195  -0.003467   0.000062
               7          8          9         10         11         12
     1  Zn  -0.100442   0.080898  -0.058064   0.142470  -0.016577   0.022166
     2  O    0.002837  -0.059741   0.001177   0.010531   0.006585  -0.041654
     3  O    0.016519   0.042364  -0.004296   0.001452  -0.020579   0.002046
     4  O    0.285401  -0.045341   0.013388  -0.042442   0.000330  -0.002522
     5  O    0.242593   0.165025  -0.041995   0.007170   0.012519  -0.000514
     6  C   -0.039044  -0.109203   0.011591   0.002491   0.006094   0.031503
     7  C    4.725260  -0.056241   0.010380  -0.000201   0.001379   0.010182
     8  Zn  -0.056241  11.521682   0.062096  -0.041521   0.115756  -0.054379
     9  O    0.010380   0.062096   8.516490  -0.227579  -0.027300   0.007172
    10  O   -0.000201  -0.041521  -0.227579   8.546503   0.004990  -0.041617
    11  O    0.001379   0.115756  -0.027300   0.004990   8.355680  -0.184983
    12  O    0.010182  -0.054379   0.007172  -0.041617  -0.184983   8.507015
    13  C   -0.033081  -0.063615   0.300160   0.257189   0.001607   0.025937
    14  C   -0.022329  -0.151533   0.027676   0.004903   0.293577   0.273916
    15  H    0.000323   0.010237  -0.000047   0.000041  -0.000409  -0.002086
    16  H    0.455928   0.021017  -0.002164  -0.000534   0.000054  -0.000102
    17  H   -0.000452   0.008197  -0.094404  -0.114029  -0.000556  -0.001925
    18  H    0.000030   0.030126  -0.002565  -0.000512  -0.104722  -0.102129
    19  C    0.005290   0.004145  -0.003573  -0.012392   0.001350  -0.007737
    20  C    0.000305  -0.002998   0.000472  -0.003678  -0.000100  -0.009944
    21  C   -0.000112   0.001063   0.000150   0.003409   0.000046  -0.000002
    22  C    0.000559  -0.009007   0.002097  -0.004444  -0.000396  -0.010183
    23  C    0.005133   0.005174  -0.000428   0.048787   0.000443  -0.006572
    24  N    0.009253   0.010037  -0.001153  -0.036352  -0.000140   0.028035
    25  H    0.000001  -0.000000   0.000000   0.000004  -0.000000  -0.000000
    26  H    0.000052   0.000519   0.000001   0.000373   0.000001   0.000293
    27  H    0.000003  -0.000003   0.000000   0.000011   0.000000   0.000006
    28  H    0.000003   0.000005   0.000001   0.000422   0.000000   0.000006
    29  H    0.000043   0.000043  -0.000107  -0.004050   0.000001   0.000308
    30  C   -0.000200  -0.001156  -0.000001   0.000000  -0.000008  -0.000000
    31  C   -0.003821   0.001446   0.000044   0.000001  -0.000002  -0.000013
    32  C    0.000389  -0.006433  -0.000007  -0.000017  -0.000010  -0.000020
    33  O   -0.001117   0.008194   0.000032   0.000001  -0.000015  -0.000002
    34  C   -0.015931  -0.103510  -0.001251  -0.000083   0.000468  -0.000129
    35  C    0.027390   0.002376  -0.008511  -0.001890  -0.005421  -0.000349
    36  C   -0.017595  -0.008175   0.004276   0.000383   0.000906   0.001386
    37  O    0.027266   0.053453  -0.001156  -0.001042  -0.019548   0.001162
    38  H   -0.000000   0.000002  -0.000000   0.000000  -0.000000   0.000000
    39  H   -0.000023   0.000193   0.000000   0.000000   0.000000  -0.000000
    40  H   -0.000004   0.000025   0.000000   0.000000  -0.000000   0.000000
    41  H   -0.000083  -0.000831   0.000000   0.000000   0.000000  -0.000000
    42  H   -0.000271   0.000031  -0.000000  -0.000000  -0.000000   0.000000
    43  H   -0.000580   0.001853   0.000014   0.000000   0.000001   0.000000
    44  H   -0.001860   0.000868  -0.000156  -0.000001   0.000049  -0.000001
    45  H    0.000270   0.005723  -0.000021   0.000000  -0.000183   0.000000
    46  H    0.001329  -0.001369   0.000480  -0.000001   0.000059   0.000001
    47  H   -0.004929  -0.001286  -0.000985  -0.000070   0.000029  -0.000012
              13         14         15         16         17         18
     1  Zn  -0.131967  -0.097007   0.016840   0.003038   0.016381   0.004755
     2  O    0.000995   0.003154  -0.114716  -0.000622   0.000043  -0.000564
     3  O    0.010075   0.022306  -0.090257  -0.002165  -0.000047  -0.002528
     4  O    0.028822   0.015359  -0.002157  -0.092713  -0.001872  -0.000124
     5  O    0.003300  -0.000408  -0.000327  -0.115823  -0.000668   0.000061
     6  C   -0.002156  -0.014365   0.453029  -0.000722   0.000234  -0.000797
     7  C   -0.033081  -0.022329   0.000323   0.455928  -0.000452   0.000030
     8  Zn  -0.063615  -0.151533   0.010237   0.021017   0.008197   0.030126
     9  O    0.300160   0.027676  -0.000047  -0.002164  -0.094404  -0.002565
    10  O    0.257189   0.004903   0.000041  -0.000534  -0.114029  -0.000512
    11  O    0.001607   0.293577  -0.000409   0.000054  -0.000556  -0.104722
    12  O    0.025937   0.273916  -0.002086  -0.000102  -0.001925  -0.102129
    13  C    4.732942  -0.023202   0.000187   0.000624   0.457857  -0.000152
    14  C   -0.023202   4.774510  -0.002001  -0.000035  -0.000552   0.443926
    15  H    0.000187  -0.002001   0.646580  -0.000006   0.000000  -0.000005
    16  H    0.000624  -0.000035  -0.000006   0.643348  -0.000005  -0.000000
    17  H    0.457857  -0.000552   0.000000  -0.000005   0.651533  -0.000005
    18  H   -0.000152   0.443926  -0.000005  -0.000000  -0.000005   0.640647
    19  C   -0.004138   0.002234  -0.002749  -0.000178  -0.000733   0.000002
    20  C   -0.023991   0.000852  -0.002204  -0.000204  -0.000043  -0.000250
    21  C    0.003295  -0.000286   0.000132   0.000019   0.000119   0.000031
    22  C   -0.044947   0.003136  -0.000051  -0.000174  -0.002257  -0.000239
    23  C   -0.001013   0.003403  -0.000700  -0.000005  -0.003073   0.000097
    24  N    0.023690   0.005986  -0.001166   0.000131  -0.001055   0.000225
    25  H   -0.000001   0.000001   0.000000  -0.000000   0.000000  -0.000000
    26  H    0.000361  -0.000070   0.000006  -0.000000   0.000000  -0.000000
    27  H    0.000019   0.000002   0.000000   0.000000   0.000000   0.000000
    28  H    0.000354   0.000001   0.000000   0.000000   0.000000   0.000000
    29  H    0.003643   0.000029   0.000000  -0.000000   0.000006  -0.000000
    30  C   -0.000000  -0.000004  -0.000003  -0.000003  -0.000000  -0.000000
    31  C    0.000017   0.000401   0.000002   0.000056   0.000000  -0.000001
    32  C   -0.000055  -0.000227   0.000023   0.000198   0.000001   0.000002
    33  O    0.000074   0.000205   0.000001   0.000024  -0.000000  -0.000000
    34  C    0.000957  -0.003875   0.000182  -0.003134   0.000102   0.000073
    35  C    0.003028   0.006675   0.000080   0.002853  -0.000712  -0.000079
    36  C   -0.004992  -0.003820  -0.000122  -0.000910   0.000333   0.000062
    37  O    0.005098  -0.003113   0.000046  -0.000693  -0.000173  -0.000523
    38  H    0.000000  -0.000000  -0.000000  -0.000000   0.000000  -0.000000
    39  H    0.000000   0.000000   0.000000   0.000000  -0.000000  -0.000000
    40  H    0.000000  -0.000001   0.000000  -0.000000  -0.000000   0.000000
    41  H   -0.000000  -0.000000  -0.000000   0.000000   0.000000   0.000000
    42  H    0.000001  -0.000011  -0.000000  -0.000000  -0.000000  -0.000000
    43  H    0.000004   0.000008  -0.000000   0.000001   0.000000   0.000000
    44  H   -0.000107  -0.000051   0.000000  -0.000053  -0.000000  -0.000000
    45  H   -0.000026  -0.000248   0.000000  -0.000000   0.000000  -0.000000
    46  H   -0.000539  -0.000230   0.000000  -0.000000   0.000001  -0.000000
    47  H   -0.000562  -0.000022   0.000000   0.000014   0.000002  -0.000000
              19         20         21         22         23         24
     1  Zn   0.019003  -0.094653  -0.096723  -0.098456   0.004168  -0.116301
     2  O    0.049634  -0.003798   0.003166  -0.003897  -0.013540  -0.035710
     3  O    0.000290   0.002045   0.000115   0.000517  -0.002520  -0.001095
     4  O   -0.006357  -0.010788   0.000284  -0.010906  -0.004703   0.026497
     5  O    0.001779  -0.000379   0.000093  -0.000615   0.001309   0.000252
     6  C   -0.006066  -0.043532   0.002424  -0.021710  -0.005712   0.022781
     7  C    0.005290   0.000305  -0.000112   0.000559   0.005133   0.009253
     8  Zn   0.004145  -0.002998   0.001063  -0.009007   0.005174   0.010037
     9  O   -0.003573   0.000472   0.000150   0.002097  -0.000428  -0.001153
    10  O   -0.012392  -0.003678   0.003409  -0.004444   0.048787  -0.036352
    11  O    0.001350  -0.000100   0.000046  -0.000396   0.000443  -0.000140
    12  O   -0.007737  -0.009944  -0.000002  -0.010183  -0.006572   0.028035
    13  C   -0.004138  -0.023991   0.003295  -0.044947  -0.001013   0.023690
    14  C    0.002234   0.000852  -0.000286   0.003136   0.003403   0.005986
    15  H   -0.002749  -0.002204   0.000132  -0.000051  -0.000700  -0.001166
    16  H   -0.000178  -0.000204   0.000019  -0.000174  -0.000005   0.000131
    17  H   -0.000733  -0.000043   0.000119  -0.002257  -0.003073  -0.001055
    18  H    0.000002  -0.000250   0.000031  -0.000239   0.000097   0.000225
    19  C    9.834938  -3.641068  -0.148578   0.116828  -0.903403   0.485812
    20  C   -3.641068   9.113937   0.531192   0.147077   0.116964  -0.270498
    21  C   -0.148578   0.531192   5.627624   0.527531  -0.145601  -0.103225
    22  C    0.116828   0.147077   0.527531   9.134002  -3.647571  -0.275281
    23  C   -0.903403   0.116964  -0.145601  -3.647571   9.835833   0.492083
    24  N    0.485812  -0.270498  -0.103225  -0.275281   0.492083   6.607794
    25  H    0.015146  -0.003893   0.285519  -0.003656   0.014779   0.004170
    26  H    0.315219   0.012973   0.030257  -0.037172   0.040018  -0.046049
    27  H    0.139692   0.166890   0.003617  -0.015576   0.013170   0.003391
    28  H    0.013114  -0.015341   0.004445   0.165722   0.139849   0.003348
    29  H    0.039955  -0.037588   0.030774   0.012669   0.316451  -0.046403
    30  C   -0.000001  -0.000000   0.000000  -0.000000  -0.000001   0.000000
    31  C   -0.000004  -0.000001  -0.000000   0.000000   0.000002  -0.000000
    32  C   -0.000006  -0.000002   0.000000  -0.000001  -0.000003   0.000009
    33  O   -0.000002  -0.000000  -0.000000   0.000000   0.000001   0.000000
    34  C    0.000037  -0.000035   0.000005  -0.000020   0.000004   0.000065
    35  C   -0.000234   0.000006  -0.000005  -0.000033  -0.000219  -0.000001
    36  C    0.000358   0.000059   0.000003   0.000044   0.000239  -0.000038
    37  O    0.000075   0.000019  -0.000002  -0.000020  -0.000215  -0.000063
    38  H   -0.000000  -0.000000   0.000000  -0.000000  -0.000000   0.000000
    39  H   -0.000000  -0.000000  -0.000000   0.000000   0.000000  -0.000000
    40  H   -0.000000  -0.000000   0.000000   0.000000   0.000000  -0.000000
    41  H   -0.000000  -0.000000   0.000000  -0.000000   0.000000   0.000000
    42  H    0.000000   0.000000   0.000000   0.000000   0.000000  -0.000000
    43  H   -0.000000  -0.000000   0.000000   0.000000   0.000000   0.000000
    44  H    0.000003   0.000000   0.000000  -0.000000  -0.000003  -0.000000
    45  H    0.000000   0.000000   0.000000  -0.000000  -0.000000   0.000000
    46  H    0.000000   0.000000  -0.000000  -0.000000  -0.000001  -0.000000
    47  H   -0.000001  -0.000000   0.000000  -0.000000  -0.000002   0.000000
              25         26         27         28         29         30
     1  Zn   0.000831  -0.011105   0.003131   0.003081  -0.012164  -0.000136
     2  O    0.000004  -0.003782   0.000424   0.000011   0.000370  -0.000010
     3  O    0.000000  -0.000054   0.000001   0.000000   0.000000   0.000160
     4  O   -0.000000   0.000292   0.000006   0.000006   0.000294  -0.000025
     5  O   -0.000000   0.000002   0.000000   0.000000   0.000001  -0.000248
     6  C   -0.000001   0.002928   0.000331   0.000017   0.000343  -0.000027
     7  C    0.000001   0.000052   0.000003   0.000003   0.000043  -0.000200
     8  Zn  -0.000000   0.000519  -0.000003   0.000005   0.000043  -0.001156
     9  O    0.000000   0.000001   0.000000   0.000001  -0.000107  -0.000001
    10  O    0.000004   0.000373   0.000011   0.000422  -0.004050   0.000000
    11  O   -0.000000   0.000001   0.000000   0.000000   0.000001  -0.000008
    12  O   -0.000000   0.000293   0.000006   0.000006   0.000308  -0.000000
    13  C   -0.000001   0.000361   0.000019   0.000354   0.003643  -0.000000
    14  C    0.000001  -0.000070   0.000002   0.000001   0.000029  -0.000004
    15  H    0.000000   0.000006   0.000000   0.000000   0.000000  -0.000003
    16  H   -0.000000  -0.000000   0.000000   0.000000  -0.000000  -0.000003
    17  H    0.000000   0.000000   0.000000   0.000000   0.000006  -0.000000
    18  H   -0.000000  -0.000000   0.000000   0.000000  -0.000000  -0.000000
    19  C    0.015146   0.315219   0.139692   0.013114   0.039955  -0.000001
    20  C   -0.003893   0.012973   0.166890  -0.015341  -0.037588  -0.000000
    21  C    0.285519   0.030257   0.003617   0.004445   0.030774   0.000000
    22  C   -0.003656  -0.037172  -0.015576   0.165722   0.012669  -0.000000
    23  C    0.014779   0.040018   0.013170   0.139849   0.316451  -0.000001
    24  N    0.004170  -0.046049   0.003391   0.003348  -0.046403   0.000000
    25  H    0.552013  -0.000144  -0.005296  -0.005297  -0.000144  -0.000000
    26  H   -0.000144   0.502790  -0.003801   0.000015  -0.000170  -0.000000
    27  H   -0.005296  -0.003801   0.548936  -0.000118   0.000015   0.000000
    28  H   -0.005297   0.000015  -0.000118   0.549264  -0.003794   0.000000
    29  H   -0.000144  -0.000170   0.000015  -0.003794   0.503700   0.000000
    30  C   -0.000000  -0.000000   0.000000   0.000000   0.000000   5.035123
    31  C    0.000000  -0.000000  -0.000000  -0.000000   0.000000   0.394711
    32  C   -0.000000   0.000000   0.000000   0.000000   0.000000   0.043707
    33  O   -0.000000   0.000000  -0.000000   0.000000  -0.000000  -0.012190
    34  C   -0.000000   0.000000   0.000000   0.000000   0.000000   0.010806
    35  C   -0.000000   0.000000  -0.000000   0.000000   0.000000   0.002624
    36  C    0.000000   0.000000  -0.000000   0.000000  -0.000001  -0.001043
    37  O    0.000000   0.000000  -0.000000  -0.000000  -0.000000  -0.000574
    38  H    0.000000  -0.000000   0.000000   0.000000   0.000000   0.386378
    39  H    0.000000  -0.000000  -0.000000   0.000000  -0.000000   0.439044
    40  H    0.000000  -0.000000   0.000000   0.000000  -0.000000  -0.000228
    41  H    0.000000  -0.000000   0.000000   0.000000   0.000000  -0.021478
    42  H    0.000000  -0.000000  -0.000000  -0.000000  -0.000000   0.027592
    43  H    0.000000  -0.000000   0.000000   0.000000   0.000000  -0.002107
    44  H   -0.000000  -0.000000   0.000000   0.000000   0.000000   0.002830
    45  H    0.000000  -0.000000  -0.000000  -0.000000   0.000000  -0.000106
    46  H   -0.000000  -0.000000  -0.000000  -0.000000   0.000000  -0.000004
    47  H   -0.000000   0.000000   0.000000   0.000000  -0.000000  -0.000006
              31         32         33         34         35         36
     1  Zn   0.000329  -0.000072   0.000191   0.007125  -0.016501   0.014389
     2  O    0.000003  -0.000039   0.000013  -0.000211   0.000502  -0.000553
     3  O   -0.000000  -0.000849  -0.000149   0.002053   0.004444  -0.007942
     4  O   -0.000032  -0.000219  -0.000001  -0.007116   0.004660  -0.002675
     5  O   -0.000323   0.005561   0.001702  -0.032129   0.011499  -0.020661
     6  C    0.000378  -0.002107  -0.000193  -0.000361  -0.005092   0.001179
     7  C   -0.003821   0.000389  -0.001117  -0.015931   0.027390  -0.017595
     8  Zn   0.001446  -0.006433   0.008194  -0.103510   0.002376  -0.008175
     9  O    0.000044  -0.000007   0.000032  -0.001251  -0.008511   0.004276
    10  O    0.000001  -0.000017   0.000001  -0.000083  -0.001890   0.000383
    11  O   -0.000002  -0.000010  -0.000015   0.000468  -0.005421   0.000906
    12  O   -0.000013  -0.000020  -0.000002  -0.000129  -0.000349   0.001386
    13  C    0.000017  -0.000055   0.000074   0.000957   0.003028  -0.004992
    14  C    0.000401  -0.000227   0.000205  -0.003875   0.006675  -0.003820
    15  H    0.000002   0.000023   0.000001   0.000182   0.000080  -0.000122
    16  H    0.000056   0.000198   0.000024  -0.003134   0.002853  -0.000910
    17  H    0.000000   0.000001  -0.000000   0.000102  -0.000712   0.000333
    18  H   -0.000001   0.000002  -0.000000   0.000073  -0.000079   0.000062
    19  C   -0.000004  -0.000006  -0.000002   0.000037  -0.000234   0.000358
    20  C   -0.000001  -0.000002  -0.000000  -0.000035   0.000006   0.000059
    21  C   -0.000000   0.000000  -0.000000   0.000005  -0.000005   0.000003
    22  C    0.000000  -0.000001   0.000000  -0.000020  -0.000033   0.000044
    23  C    0.000002  -0.000003   0.000001   0.000004  -0.000219   0.000239
    24  N   -0.000000   0.000009   0.000000   0.000065  -0.000001  -0.000038
    25  H    0.000000  -0.000000  -0.000000  -0.000000  -0.000000   0.000000
    26  H   -0.000000   0.000000   0.000000   0.000000   0.000000   0.000000
    27  H   -0.000000   0.000000  -0.000000   0.000000  -0.000000  -0.000000
    28  H   -0.000000   0.000000   0.000000   0.000000   0.000000   0.000000
    29  H    0.000000   0.000000  -0.000000   0.000000   0.000000  -0.000001
[...]
 0.,0.,0.,0.,0.,0.,0.,0.,0.,0.,0.,0.,0.,0.,0.,0.,0.,0.,0.,0.,0.,0.00029
 716,-0.00006703,-0.00003845,0.00327998,0.00524751,-0.00212566,-0.09132
 975,-0.07860874,0.03562060,0.00726812,0.02200774,-0.00289141,0.0015433
 5,0.00097174,-0.00203052,-0.00018466,-0.00001584,-0.00023385,-0.000041
 09,-0.00007391,0.00007808,0.00008599,-0.00000292,-0.00007731,0.0002526
 0,-0.00002676,0.00002658,0.00023553,-0.00042468,-0.00006153,0.00038225
 ,-0.00004156,0.00062694,0.08968750,0.,0.,0.,0.,0.,0.,-0.00035162,0.000
 11085,0.00005301,0.,0.,0.,-0.00021440,0.00009384,-0.00013420,0.,0.,0.,
 0.,0.,0.,0.00041274,0.00010826,0.00021627,-0.00011523,-0.00006480,-0.0
 0006456,0.,0.,0.,-0.00026523,-0.00015165,0.00006304,0.,0.,0.,0.,0.,0.,
 0.,0.,0.,0.,0.,0.,0.,0.,0.,0.,0.,0.,0.,0.,0.,0.,0.,0.,0.,0.,0.,0.,0.,0
 .,0.,0.,0.,0.,0.,0.,0.,0.,0.,0.,0.,0.,0.,0.,0.,0.,0.,0.,0.,0.,0.,0.,0.
 ,0.,0.00079535,0.00010408,-0.00004903,-0.00112990,0.00268457,0.0019108
 8,-0.07717733,-0.19933429,0.07777932,0.00195343,-0.04148481,-0.0020261
 5,-0.00006346,0.00107818,0.00565478,0.00011687,0.00021791,-0.00043950,
 0.00014360,-0.00011452,-0.00011087,-0.00000156,0.00029227,0.00008301,-
 0.00014400,-0.00037722,0.00014724,0.00009453,0.00004938,-0.00009241,0.
 00012476,0.00005740,0.00034601,0.07805266,0.23701572,0.,0.,0.,0.,0.,0.
 ,-0.00017488,-0.00002847,0.00005516,0.,0.,0.,-0.00004637,-0.00000497,-
 0.00000337,0.,0.,0.,0.,0.,0.,0.00009409,0.00006612,-0.00003638,-0.0000
 2184,-0.00001592,0.00001031,0.,0.,0.,-0.00003680,-0.00002837,0.0000671
 7,0.,0.,0.,0.,0.,0.,0.,0.,0.,0.,0.,0.,0.,0.,0.,0.,0.,0.,0.,0.,0.,0.,0.
 ,0.,0.,0.,0.,0.,0.,0.,0.,0.,0.,0.,0.,0.,0.,0.,0.,0.,0.,0.,0.,0.,0.,0.,
 0.,0.,0.,0.,0.,0.,0.,0.,-0.00254942,-0.00004805,-0.00318674,0.01553388
 ,0.02543048,-0.01570101,0.03559172,0.08400352,-0.08933562,-0.00181369,
 -0.01770515,0.00408725,-0.00201322,-0.00287901,0.00339859,-0.00002951,
 0.00000828,0.00018213,0.00003558,0.00002748,-0.00009355,0.00003748,0.0
 0012894,0.00001650,0.00040789,-0.00261614,-0.00055739,0.00004778,0.001
 38245,-0.00008790,-0.00061974,-0.00070765,0.00089518,-0.04195854,-0.08
 333333,0.09575272,0.,0.,0.,0.,0.,0.,-0.00079411,-0.00042591,-0.0000725
 6,0.,0.,0.,0.00013074,-0.00011067,0.00000072,0.,0.,0.,0.,0.,0.,-0.0002
 7541,0.00016751,0.00007160,0.00005872,-0.00000648,0.00000328,0.,0.,0.,
 0.00011981,-0.00000382,-0.00004704,0.,0.,0.,0.,0.,0.,0.,0.,0.,0.,0.,0.
 ,0.,0.,0.,0.,0.,0.,0.,0.,0.,0.,0.,0.,0.,0.,0.,0.,0.,0.,0.,0.,0.,0.,0.,
 0.,0.,0.,0.,0.,0.,0.,0.,0.,0.,0.,0.,0.,0.,0.,0.,0.,0.,0.,0.00110067,0.
 00025839,0.00155145,-0.00441123,-0.00131911,-0.00179811,-0.28744846,-0
 .02149701,-0.05115008,-0.01728168,0.01328510,0.00531935,0.00047233,-0.
 00024077,-0.00347567,0.00038386,-0.00009704,0.00035881,-0.00006459,0.0
 0002999,0.00002927,0.00020159,0.00012866,-0.00001025,0.00037072,0.0004
 4291,0.00008942,0.00059044,-0.00049944,-0.00055068,0.00085096,-0.00020
 412,0.00001323,-0.01028088,-0.00287524,-0.00305884,0.31645398,0.,0.,0.
 ,0.,0.,0.,0.00137469,-0.00001048,0.00035414,0.,0.,0.,-0.00026869,-0.00
 005311,0.00005235,0.,0.,0.,0.,0.,0.,0.00040084,-0.00034005,-0.00058624
 ,-0.00002772,-0.00000136,0.00003459,0.,0.,0.,-0.00007123,0.00014425,0.
 00006894,0.,0.,0.,0.,0.,0.,0.,0.,0.,0.,0.,0.,0.,0.,0.,0.,0.,0.,0.,0.,0
 .,0.,0.,0.,0.,0.,0.,0.,0.,0.,0.,0.,0.,0.,0.,0.,0.,0.,0.,0.,0.,0.,0.,0.
 ,0.,0.,0.,0.,0.,0.,0.,0.,0.,0.,0.00040566,-0.00050789,-0.00025559,0.00
 112250,0.00139632,0.00225598,-0.02826555,-0.05064191,-0.00347441,0.037
 40418,-0.00951310,-0.00403896,0.00132646,0.00034464,0.00443654,0.00026
 437,0.00009022,0.00001067,-0.00001203,0.00007012,-0.00002880,-0.000362
 50,-0.00023120,0.00004109,0.00003288,-0.00014494,-0.00009685,0.0000132
 0,0.00023972,0.00000452,0.00063820,0.00121903,0.00008416,-0.02540222,-
 0.00048128,-0.00491254,0.01337182,0.05747553,0.,0.,0.,0.,0.,0.,0.00028
 770,0.00005488,-0.00059646,0.,0.,0.,0.00002685,0.00005922,0.00004490,0
 .,0.,0.,0.,0.,0.,0.00008465,-0.00020826,0.00003223,0.00000344,0.000017
 11,-0.00001943,0.,0.,0.,-0.00006858,-0.00002359,-0.00002400,0.,0.,0.,0
 .,0.,0.,0.,0.,0.,0.,0.,0.,0.,0.,0.,0.,0.,0.,0.,0.,0.,0.,0.,0.,0.,0.,0.
 ,0.,0.,0.,0.,0.,0.,0.,0.,0.,0.,0.,0.,0.,0.,0.,0.,0.,0.,0.,0.,0.,0.,0.,
 0.,0.,0.,0.,-0.00127985,0.00025855,0.00160068,-0.03261486,-0.00236980,
 -0.00749455,-0.05066815,-0.00209000,-0.06374844,0.01728658,-0.00591210
 ,-0.00060115,0.00351890,-0.00017696,0.00429576,-0.00004053,-0.00018024
 ,0.00003220,-0.00001948,-0.00000170,-0.00000699,-0.00009796,-0.0000432
 8,-0.00004893,0.00028932,0.00022811,0.00036849,0.00119003,-0.00015510,
 -0.00011765,-0.00070288,0.00017437,-0.00559893,0.01341675,0.00255060,0
 .00410133,0.05118740,0.00682669,0.06777168,0.,0.,0.,0.,0.,0.,-0.000741
 38,0.00006324,0.00034500,0.,0.,0.,-0.00057298,-0.00008440,-0.00064358,
 0.,0.,0.,0.,0.,0.,0.00027527,0.00108508,0.00029601,-0.00002449,-0.0000
 8757,-0.00005642,0.,0.,0.,-0.00004051,-0.00013511,0.00000706,0.,0.,0.,
 0.,0.,0.,0.,0.,0.,0.,0.,0.,0.,0.,0.,0.,0.,0.,0.,0.,0.,0.,0.,0.,0.,0.,0
 .,0.,0.,0.,0.,0.,0.,0.,0.,0.,0.,0.,0.,0.,0.,0.,0.,0.,0.,0.,0.,0.,0.,0.
 ,0.,0.,0.,0.,-0.00005517,0.00002557,-0.00003444,0.00013581,0.00045734,
 -0.00001845,0.00071630,-0.00161455,-0.00065279,0.00685136,0.00291919,0
 .00575734,-0.14823230,-0.10349226,0.04356561,0.00562178,0.00651442,-0.
 00277484,0.00033777,-0.00136986,-0.00054610,0.00186499,0.00276776,0.00
 047231,0.00000315,-0.00007403,0.00001324,-0.00000035,0.00000957,-0.000
 00042,-0.00001082,-0.00003307,-0.00002925,-0.00030341,0.00069000,0.000
 34535,-0.00025501,-0.00017783,-0.00030955,0.15177673,0.,0.,0.,0.,0.,0.
 ,-0.00008227,0.00008139,-0.00005978,0.,0.,0.,-0.00009349,0.00024866,-0
 .00003975,0.,0.,0.,0.,0.,0.,0.00101559,-0.00032343,-0.00000721,-0.0002
 2203,-0.00008467,-0.00009856,0.,0.,0.,-0.00033330,-0.00013350,0.000160
 60,0.,0.,0.,0.,0.,0.,0.,0.,0.,0.,0.,0.,0.,0.,0.,0.,0.,0.,0.,0.,0.,0.,0
 .,0.,0.,0.,0.,0.,0.,0.,0.,0.,0.,0.,0.,0.,0.,0.,0.,0.,0.,0.,0.,0.,0.,0.
 ,0.,0.,0.,0.,0.,0.,0.,0.,-0.00002842,-0.00000898,0.00008865,-0.0000782
 8,0.00025881,-0.00025366,0.00120435,0.00229182,-0.00100014,0.00196653,
 0.00358712,0.00727680,-0.10284030,-0.16903407,0.04924587,-0.02115020,-
 0.01846127,0.00735983,-0.00107597,0.00107598,0.00073807,0.00172583,-0.
 00610156,-0.00228375,-0.00001271,-0.00001874,0.00003367,0.00001069,-0.
 00002678,-0.00000249,0.00001393,-0.00002954,0.00001071,-0.00101296,0.0
 0035814,0.00137422,-0.00029318,-0.00013637,0.00019128,0.11616275,0.180
 57294,0.,0.,0.,0.,0.,0.,-0.00004646,0.00011506,0.00026063,0.,0.,0.,-0.
 00041416,0.00014347,-0.00016870,0.,0.,0.,0.,0.,0.,0.00096437,0.0000893
 9,-0.00036877,-0.00018279,-0.00009041,-0.00002339,0.,0.,0.,-0.00013613
 ,-0.00000840,0.00022489,0.,0.,0.,0.,0.,0.,0.,0.,0.,0.,0.,0.,0.,0.,0.,0
 .,0.,0.,0.,0.,0.,0.,0.,0.,0.,0.,0.,0.,0.,0.,0.,0.,0.,0.,0.,0.,0.,0.,0.
 ,0.,0.,0.,0.,0.,0.,0.,0.,0.,0.,0.,0.,0.,0.,0.,-0.00011790,-0.00010027,
 0.00000366,0.00000647,-0.00053109,0.00001948,-0.00153282,0.00708312,0.
 00247647,0.02237031,0.02269565,-0.03772963,0.04491963,0.04751261,-0.06
 497820,-0.00703768,-0.00474324,0.00356414,-0.00026888,0.00129079,0.001
 61812,-0.00069806,-0.00530814,-0.00036066,0.00000436,0.00012428,-0.000
 03976,-0.00001071,-0.00005246,0.00001519,-0.00000715,0.00009254,-0.000
 00749,-0.00035675,-0.00190387,0.00087393,0.00029335,-0.00078849,-0.000
 27586,-0.05405296,-0.06009045,0.08969595,0.,0.,0.,0.,0.,0.,-0.00019570
 ,-0.00004175,0.00000760,0.,0.,0.,-0.00096394,-0.00046054,-0.00044686,0
 .,0.,0.,0.,0.,0.,0.00034995,-0.00004562,-0.00005189,-0.00001762,-0.000
 03129,0.00001109,0.,0.,0.,-0.00003479,-0.00002169,0.00004604,0.,0.,0.,
 0.,0.,0.,0.,0.,0.,0.,0.,0.,0.,0.,0.,0.,0.,0.,0.,0.,0.,0.,0.,0.,0.,0.,0
 .,0.,0.,0.,0.,0.,0.,0.,0.,0.,0.,0.,0.,0.,0.,0.,0.,0.,0.,0.,0.,0.,0.,0.
 ,0.,0.,0.,0.,-0.00001320,-0.00000714,-0.00004468,0.00032295,-0.0002162
 0,0.00010010,0.00290497,0.00080745,0.00103032,0.00547228,-0.00008279,-
 0.00461238,-0.27014923,0.04631166,-0.07169027,-0.00948761,0.00073302,-
 0.00276393,-0.00046541,-0.00000055,-0.00024689,0.00253527,-0.00120763,
 -0.00006875,-0.00000483,0.00005382,-0.00000900,-0.00001358,-0.00003194
 ,0.00000581,-0.00006961,0.00008182,0.00015707,-0.00054421,-0.00038106,
 0.00012906,0.00015386,-0.00089259,-0.00122241,-0.01750277,0.00370731,-
 0.00440438,0.28728304,0.,0.,0.,0.,0.,0.,0.00053965,-0.00033001,-0.0004
 1920,0.,0.,0.,0.00076755,-0.00021588,0.00055401,0.,0.,0.,0.,0.,0.,-0.0
 0108220,-0.00175971,0.00005794,0.00010393,0.00015529,0.00006814,0.,0.,
 0.,0.00005105,0.00013158,-0.00009667,0.,0.,0.,0.,0.,0.,0.,0.,0.,0.,0.,
 0.,0.,0.,0.,0.,0.,0.,0.,0.,0.,0.,0.,0.,0.,0.,0.,0.,0.,0.,0.,0.,0.,0.,0
 .,0.,0.,0.,0.,0.,0.,0.,0.,0.,0.,0.,0.,0.,0.,0.,0.,0.,0.,0.,0.00003584,
 -0.00001049,0.00007414,-0.00005534,-0.00015292,-0.00003492,-0.00224364
 ,0.00083107,-0.00072021,0.00257864,0.00198760,0.00014409,0.04114634,-0
 .06134584,0.01386025,0.03001640,-0.00903823,0.00855672,0.00119505,0.00
 054896,0.00025705,-0.00140653,0.00327871,0.00183913,-0.00000562,0.0000
 1218,0.00002026,0.00000669,0.00001613,-0.00001873,0.00007047,-0.000050
 81,0.00002555,-0.00030892,-0.00016461,-0.00015516,0.00020116,0.0005331
 2,0.00050973,-0.02241888,0.00543192,-0.00589540,-0.04917623,0.06402761
 ,0.,0.,0.,0.,0.,0.,-0.00091680,0.00003732,0.00044099,0.,0.,0.,0.000180
 01,0.00006477,-0.00026343,0.,0.,0.,0.,0.,0.,0.00046187,0.00036862,0.00
 072206,-0.00004968,0.00003797,-0.00006250,0.,0.,0.,-0.00009630,-0.0001
 2581,0.00009306,0.,0.,0.,0.,0.,0.,0.,0.,0.,0.,0.,0.,0.,0.,0.,0.,0.,0.,
 0.,0.,0.,0.,0.,0.,0.,0.,0.,0.,0.,0.,0.,0.,0.,0.,0.,0.,0.,0.,0.,0.,0.,0
 .,0.,0.,0.,0.,0.,0.,0.,0.,0.,0.,0.,0.,0.00007167,-0.00002763,-0.000013
 82,0.00033510,-0.00022888,-0.00005850,-0.00443110,0.00416944,0.0027447
 7,-0.03183493,0.00485088,-0.03191166,-0.06755675,0.01274026,-0.0727777
 6,0.01095846,-0.00063765,0.00536510,0.00056067,0.00009009,0.00085568,-
 0.00081412,0.00048222,-0.00018801,0.00001382,0.00002873,-0.00000518,0.
 00003141,0.00003235,-0.00004568,0.00017237,0.00002618,0.00029412,0.000
 26371,-0.00058740,-0.00028798,0.00143370,-0.00038541,0.00008540,0.0085
 8041,-0.00221754,0.00552406,0.08274811,-0.01614276,0.09101132,0.,0.,0.
 ,0.,0.,0.,-0.00011800,0.00009394,0.00015302,0.,0.,0.,-0.00053545,0.000
 31298,-0.00037339,0.,0.,0.,0.,0.,0.,0.00172860,0.00002868,-0.00078909,
 -0.00027708,-0.00017866,-0.00008367,0.,0.,0.,-0.00011004,-0.00015046,0
 .00030364,0.,0.,0.,0.,0.,0.,0.,0.,0.,0.,0.,0.,0.,0.,0.,0.,0.,0.,0.,0.,
 0.,0.,0.,0.,0.,0.,0.,0.,0.,0.,0.,0.,0.,0.,0.,0.,0.,0.,0.,0.,0.,0.,0.,0
 .,0.,0.,0.,0.,0.,0.,0.,0.,0.,0.,-0.00000342,-0.00001735,-0.00000060,-0
 .00002949,-0.00000310,0.00003876,0.00012308,0.00003240,0.00031333,0.00
 055183,-0.00127762,-0.00038880,-0.00384038,0.00438466,-0.00541815,-0.2
 2184143,0.09401923,-0.10228723,0.00518971,-0.00683731,0.00444218,-0.02
 357658,-0.00248961,-0.01461396,0.00000090,0.00000828,-0.00000161,0.000
 00478,0.00000207,-0.00000084,0.00001348,0.00002357,0.00001567,0.000023
 03,-0.00017017,-0.00004147,0.00007387,-0.00012942,-0.00011240,-0.00022
 696,0.00104249,0.00048163,0.00052513,0.00116410,-0.00004470,0.24122152
 ,0.,0.,0.,0.,0.,0.,0.00015777,0.00013433,-0.00005082,0.,0.,0.,-0.00039
 294,0.00059357,-0.00005212,0.,0.,0.,0.,0.,0.,0.00143682,-0.00052177,-0
 .00073992,-0.00027018,-0.00013081,-0.00006393,0.,0.,0.,-0.00019134,-0.
 00013008,0.00023291,0.,0.,0.,0.,0.,0.,0.,0.,0.,0.,0.,0.,0.,0.,0.,0.,0.
 ,0.,0.,0.,0.,0.,0.,0.,0.,0.,0.,0.,0.,0.,0.,0.,0.,0.,0.,0.,0.,0.,0.,0.,
 0.,0.,0.,0.,0.,0.,0.,0.,0.,0.,0.,0.,0.,0.,-0.00003298,0.00000041,-0.00
 004439,0.00001712,0.00001690,-0.00000951,-0.00011084,0.00009182,-0.000
 23673,-0.00174193,0.00190063,0.00063989,0.02478349,-0.00711331,0.01395
 177,0.09768112,-0.09492077,0.05425724,-0.00407714,-0.00269504,-0.00266
 041,-0.02591094,0.00420194,-0.01507067,0.00000875,-0.00000922,-0.00001
 403,-0.00000487,0.00000247,0.00001094,-0.00001627,-0.00000685,-0.00007
 479,0.00003691,0.00015312,0.00007045,-0.00023247,0.00008706,0.00010379
 ,-0.00077054,0.00054692,0.00025738,0.00063964,-0.00448169,-0.00252770,
 -0.09088605,0.10116962,0.,0.,0.,0.,0.,0.,0.00002856,0.00002611,0.00000
 071,0.,0.,0.,-0.00046528,0.00013315,0.00012973,0.,0.,0.,0.,0.,0.,-0.00
 003995,0.00008521,-0.00009524,-0.00002892,-0.00004606,0.00001658,0.,0.
 ,0.,-0.00004595,0.00000883,-0.00005750,0.,0.,0.,0.,0.,0.,0.,0.,0.,0.,0
 .,0.,0.,0.,0.,0.,0.,0.,0.,0.,0.,0.,0.,0.,0.,0.,0.,0.,0.,0.,0.,0.,0.,0.
 ,0.,0.,0.,0.,0.,0.,0.,0.,0.,0.,0.,0.,0.,0.,0.,0.,0.,0.,0.,0.,-0.000014
 05,0.00001392,0.00000718,-0.00005104,0.00009659,-0.00003462,0.00014308
 ,-0.00011886,-0.00000661,-0.00001537,0.00093996,0.00163082,0.00860186,
 -0.00568137,0.00522745,-0.10931686,0.04898209,-0.10966601,-0.02404735,
 0.01252607,-0.01131613,0.00712644,-0.00498590,0.00298773,-0.00000005,-
 0.00001695,0.00000177,-0.00000132,-0.00000177,0.00000386,-0.00001164,-
 0.00002440,-0.00003781,0.00004253,0.00011697,-0.00001649,-0.00012673,-
 0.00001109,-0.00004305,-0.00016761,0.00025899,0.00001893,0.00083096,-0
 .00195597,-0.00063126,0.11779694,-0.04756699,0.11197702,0.,0.,0.,0.,0.
 ,0.,-0.00017804,0.00012763,0.00014096,0.,0.,0.,-0.00101179,0.00020073,
 -0.00032500,0.,0.,0.,0.,0.,0.,0.00145249,0.00059679,0.00021235,0.00009
 978,-0.00013793,-0.00015120,0.,0.,0.,-0.00037575,-0.00029169,0.0002214
 9,0.,0.,0.,0.,0.,0.,0.,0.,0.,0.,0.,0.,0.,0.,0.,0.,0.,0.,0.,0.,0.,0.,0.
 ,0.,0.,0.,0.,0.,0.,0.,0.,0.,0.,0.,0.,0.,0.,0.,0.,0.,0.,0.,0.,0.,0.,0.,
 0.,0.,0.,0.,0.,0.,0.,0.,-0.00002463,0.00000293,-0.00005879,0.00010153,
 -0.00011803,0.00000342,-0.00028285,0.00016822,-0.00023527,0.00064951,-
 0.00127698,-0.00095142,0.00008484,0.00237455,-0.00244074,0.01156462,-0
 .01577539,-0.00453662,-0.15192384,0.12440865,0.06418409,-0.01300797,0.
 00966228,0.01557231,0.00001206,0.00001686,-0.00001262,0.00000353,-0.00
 001114,0.00000122,-0.00000490,0.00000369,0.00000007,0.00000727,-0.0000
 4052,-0.00000122,0.00002480,-0.00002290,-0.00000539,-0.00014841,0.0000
 4844,0.00003219,0.00011682,-0.00013159,0.00000100,-0.00049650,-0.00001
 513,0.00129873,0.15784308,0.,0.,0.,0.,0.,0.,-0.00001331,0.00007453,-0.
 00002790,0.,0.,0.,0.00071964,-0.00001903,0.00000419,0.,0.,0.,0.,0.,0.,
 0.00080903,-0.00009802,0.00049739,0.00000988,0.00002923,-0.00002304,0.
 ,0.,0.,-0.00023168,-0.00016649,0.00012449,0.,0.,0.,0.,0.,0.,0.,0.,0.,0
 .,0.,0.,0.,0.,0.,0.,0.,0.,0.,0.,0.,0.,0.,0.,0.,0.,0.,0.,0.,0.,0.,0.,0.
 ,0.,0.,0.,0.,0.,0.,0.,0.,0.,0.,0.,0.,0.,0.,0.,0.,0.,0.,0.,0.,0.,-0.000
 02950,-0.00000772,-0.00006355,0.00011352,-0.00012207,0.00000819,-0.000
 34011,0.00032557,-0.00010731,0.00046900,-0.00110416,-0.00081639,-0.000
 13704,0.00221889,-0.00169621,0.01004927,-0.01159626,-0.00039929,0.1281
 2397,-0.18511509,-0.08384910,-0.01581089,0.01719477,0.01097770,0.00001
 173,0.00001827,-0.00001902,0.00000119,-0.00000675,0.00000511,-0.000008
 87,0.00001089,-0.00000426,0.00001391,-0.00005566,-0.00000249,0.0000253
 5,-0.00002943,0.00000578,-0.00001913,-0.00000602,0.00004134,-0.0000832
 7,0.00017925,0.00018615,-0.00042721,0.00101586,0.00074284,-0.12946570,
 0.18346788,0.,0.,0.,0.,0.,0.,0.00020781,-0.00006642,0.00002417,0.,0.,0
 .,-0.00089478,0.00001437,0.00016552,0.,0.,0.,0.,0.,0.,-0.00138453,-0.0
 0002201,-0.00059649,0.00006376,-0.00000025,0.00006760,0.,0.,0.,0.00031
 801,0.00021783,-0.00013758,0.,0.,0.,0.,0.,0.,0.,0.,0.,0.,0.,0.,0.,0.,0
 .,0.,0.,0.,0.,0.,0.,0.,0.,0.,0.,0.,0.,0.,0.,0.,0.,0.,0.,0.,0.,0.,0.,0.
 ,0.,0.,0.,0.,0.,0.,0.,0.,0.,0.,0.,0.,0.,0.,0.,0.,-0.00002367,-0.000010
 62,-0.00005070,0.00008763,-0.00009436,0.00001824,-0.00029231,0.0002316
 0,-0.00004256,0.00054309,-0.00102290,-0.00041784,-0.00013666,0.0022398
 0,-0.00116154,0.01391697,-0.01018154,-0.00926577,0.06620188,-0.0748303
 9,-0.09581039,0.01265645,-0.00922030,-0.01677832,0.00000867,0.00001387
 ,-0.00001616,-0.00000051,-0.00000167,0.00000465,-0.00000869,0.00000931
 ,-0.00000468,0.00001150,-0.00006918,-0.00001205,0.00002387,-0.00000468
 ,-0.00001001,-0.00011422,-0.00019950,-0.00017878,0.00013627,-0.0001323
 4,-0.00001359,-0.00055291,-0.00059101,0.00099199,-0.08051140,0.0833056
 4,0.11108697,0.,0.,0.,0.,0.,0.,0.00001692,-0.00005552,-0.00034609,0.,0
 .,0.,-0.00039199,-0.00037865,0.00069257,0.,0.,0.,0.,0.,0.,0.00086098,-
 0.00100479,0.00138320,0.00009570,0.00036037,-0.00006024,0.,0.,0.,-0.00
 035524,-0.00002156,0.00001884,0.,0.,0.,0.,0.,0.,0.,0.,0.,0.,0.,0.,0.,0
 .,0.,0.,0.,0.,0.,0.,0.,0.,0.,0.,0.,0.,0.,0.,0.,0.,0.,0.,0.,0.,0.,0.,0.
 ,0.,0.,0.,0.,0.,0.,0.,0.,0.,0.,0.,0.,0.,0.,0.,0.,0.,0.00002524,0.00000
 287,0.00003209,-0.00006356,0.00004430,-0.00000119,0.00024881,-0.000210
 59,-0.00003545,-0.00019934,0.00033218,0.00041699,0.00089598,0.00017861
 ,0.00087446,-0.00993189,0.00767976,-0.00406847,-0.14993679,0.10572052,
 -0.10856608,0.01371507,-0.01488064,0.02029266,-0.00000897,-0.00000549,
 0.00000780,-0.00000473,0.00000480,-0.00000090,-0.00000217,-0.00000329,
 -0.00000594,-0.00001155,0.00001610,-0.00000362,-0.00002765,0.00001594,
 0.00000843,-0.00013599,-0.00007979,-0.00005884,0.00020298,-0.00028726,
 0.00008367,0.00116502,-0.00025798,-0.00168496,-0.00492096,0.00632921,-
 0.01010389,0.15008194,0.,0.,0.,0.,0.,0.,-0.00008639,-0.00001022,0.0000
 1782,0.,0.,0.,0.00129100,-0.00097781,-0.00040267,0.,0.,0.,0.,0.,0.,0.0
 0012355,0.00020118,0.00072942,0.00023316,0.00009811,-0.00011128,0.,0.,
 0.,-0.00011979,-0.00002910,0.00000151,0.,0.,0.,0.,0.,0.,0.,0.,0.,0.,0.
 ,0.,0.,0.,0.,0.,0.,0.,0.,0.,0.,0.,0.,0.,0.,0.,0.,0.,0.,0.,0.,0.,0.,0.,
 0.,0.,0.,0.,0.,0.,0.,0.,0.,0.,0.,0.,0.,0.,0.,0.,0.,0.,0.,0.,0.00000630
 ,-0.00000211,0.00001186,-0.00002224,0.00001591,-0.00000333,0.00006192,
 -0.00007876,0.00006173,0.00013339,-0.00007706,0.00032444,-0.00069671,0
 .00055516,0.00059719,-0.01545012,0.01312322,-0.00953361,0.10044321,-0.
 14008954,0.08857492,0.00687645,-0.00814395,0.01531705,-0.00000173,-0.0
 0000043,0.00000333,0.00000154,0.00000159,-0.00000239,0.00000349,0.0000
 0373,0.00000664,-0.00000069,-0.00002206,-0.00001208,0.00001550,-0.0000
 1457,-0.00001577,-0.00011134,-0.00017912,0.00010090,0.00032469,-0.0000
 3152,-0.00018939,0.00139062,-0.00006963,-0.00350442,0.00987002,-0.0063
 6751,0.01063788,-0.10423510,0.14213154,0.,0.,0.,0.,0.,0.,0.00000777,-0
 .00006605,0.00008711,0.,0.,0.,-0.00174626,0.00024894,-0.00065381,0.,0.
 ,0.,0.,0.,0.,-0.00063016,0.00078713,-0.00061699,0.00009508,-0.00004389
 ,0.00003862,0.,0.,0.,0.00031744,0.00010194,-0.00014906,0.,0.,0.,0.,0.,
 0.,0.,0.,0.,0.,0.,0.,0.,0.,0.,0.,0.,0.,0.,0.,0.,0.,0.,0.,0.,0.,0.,0.,0
 .,0.,0.,0.,0.,0.,0.,0.,0.,0.,0.,0.,0.,0.,0.,0.,0.,0.,0.,0.,0.,0.,0.,0.
 ,0.,0.,0.00000105,-0.00000693,0.00001385,-0.00001256,0.00001883,-0.000
 00196,0.00004187,-0.00011799,0.00001207,0.00022874,-0.00001626,0.00054
 798,-0.00135131,0.00057576,0.00060509,-0.00680481,0.01269465,-0.011338
 06,-0.09507566,0.08961778,-0.14770767,-0.00628712,0.00834814,-0.019165
 54,-0.00000128,0.00000009,0.00000419,0.00000014,0.00000426,-0.00000224
 ,0.00000344,0.00000395,0.00000579,0.00000202,-0.00001851,-0.00001180,0
 .00000881,0.00000066,-0.00002117,0.00009068,-0.00047866,-0.00018360,0.
 00047380,-0.00032024,-0.00031996,0.00118133,0.00017691,-0.00120743,0.0
 0738832,-0.00865278,0.01179597,0.10218398,-0.10247887,0.16770666\\0.,0
 .,0.,0.,0.,0.,0.,0.,0.,0.,0.,0.,0.,0.,0.,0.,0.,0.,0.,0.,0.,0.,0.,0.,0.
 ,0.,0.,0.,0.,0.,0.,0.,0.,0.,0.,0.,0.,0.,0.,0.,0.,0.,0.,0.,0.,0.,0.,0.,
 0.,0.,0.,0.,0.,0.,0.,0.,0.,0.,0.,0.,0.,0.,0.,0.,0.,0.,0.,0.,0.,0.,0.,0
 .,0.,0.,0.,0.,0.,0.,0.,0.,0.,0.,0.,0.,0.,0.,0.,0.,0.,0.,0.,0.,0.,0.,0.
 ,0.,0.,0.,0.,0.,0.,0.,0.,0.,0.,0.,0.,0.,0.,0.,0.,0.,0.,0.,0.,0.,0.,0.,
 0.,0.,0.,0.,0.,0.,0.,0.,0.,0.,0.,0.,0.,0.,0.,0.,0.,0.,0.,0.,0.,0.,0.\\
 \@
 The archive entry for this job was punched.


 WHAT THE SLIME CONTAINS, THE GLOWING REVEALS
 BY THE FLAME'S BRIGHT HUE WHEN YOU IGNITE IT.
   --  LEONARD THURNEYSSER, 1531-1596
 DESCRIBING HIS FLAME PHOTOLYSIS ANALYTIC METHOD
 Job cpu time:       0 days  4 hours 23 minutes 48.2 seconds.
 Elapsed time:       0 days  0 hours 13 minutes 15.2 seconds.
 File lengths (MBytes):  RWF=   1215 Int=      0 D2E=      0 Chk=     27 Scr=      1
 Normal termination of Gaussian 16 at Tue Jul  4 15:23:35 2023.
