 Entering Gaussian System, Link 0=g16
 Input=paddle_new_AGC_TEABr_opt_freq_6_31Gdp.com
 Output=paddle_new_AGC_TEABr_opt_freq_6_31Gdp.log
 Initial command:
 /opt/ohpc/pub/apps/gaussian/avx2/g16/l1.exe "/scratch/g16-tmp/Gau-1597225.inp" -scrdir="/scratch/g16-tmp/"
 Entering Link 1 = /opt/ohpc/pub/apps/gaussian/avx2/g16/l1.exe PID=   1597227.
  
 Copyright (c) 1988-2017, Gaussian, Inc.  All Rights Reserved.
  
 This is part of the Gaussian(R) 16 program.  It is based on
 the Gaussian(R) 09 system (copyright 2009, Gaussian, Inc.),
 the Gaussian(R) 03 system (copyright 2003, Gaussian, Inc.),
 the Gaussian(R) 98 system (copyright 1998, Gaussian, Inc.),
 the Gaussian(R) 94 system (copyright 1995, Gaussian, Inc.),
 the Gaussian 92(TM) system (copyright 1992, Gaussian, Inc.),
 the Gaussian 90(TM) system (copyright 1990, Gaussian, Inc.),
 the Gaussian 88(TM) system (copyright 1988, Gaussian, Inc.),
 the Gaussian 86(TM) system (copyright 1986, Carnegie Mellon
 University), and the Gaussian 82(TM) system (copyright 1983,
 Carnegie Mellon University). Gaussian is a federally registered
 trademark of Gaussian, Inc.
  
 This software contains proprietary and confidential information,
 including trade secrets, belonging to Gaussian, Inc.
  
 This software is provided under written license and may be
 used, copied, transmitted, or stored only in accord with that
 written license.
  
 The following legend is applicable only to US Government
 contracts under FAR:
  
                    RESTRICTED RIGHTS LEGEND
  
 Use, reproduction and disclosure by the US Government is
 subject to restrictions as set forth in subparagraphs (a)
 and (c) of the Commercial Computer Software - Restricted
 Rights clause in FAR 52.227-19.
  
 Gaussian, Inc.
 340 Quinnipiac St., Bldg. 40, Wallingford CT 06492
  
  
 ---------------------------------------------------------------
 Warning -- This program may not be used in any manner that
 competes with the business of Gaussian, Inc. or will provide
 assistance to any competitor of Gaussian, Inc.  The licensee
 of this program is prohibited from giving any competitor of
 Gaussian, Inc. access to this program.  By using this program,
 the user acknowledges that Gaussian, Inc. is engaged in the
 business of creating and licensing software in the field of
 computational chemistry and represents and warrants to the
 licensee that it is not a competitor of Gaussian, Inc. and that
 it will not use this program in any manner prohibited above.
 ---------------------------------------------------------------
  

 Cite this work as:
 Gaussian 16, Revision B.01,
 M. J. Frisch, G. W. Trucks, H. B. Schlegel, G. E. Scuseria, 
 M. A. Robb, J. R. Cheeseman, G. Scalmani, V. Barone, 
 G. A. Petersson, H. Nakatsuji, X. Li, M. Caricato, A. V. Marenich, 
 J. Bloino, B. G. Janesko, R. Gomperts, B. Mennucci, H. P. Hratchian, 
 J. V. Ortiz, A. F. Izmaylov, J. L. Sonnenberg, D. Williams-Young, 
 F. Ding, F. Lipparini, F. Egidi, J. Goings, B. Peng, A. Petrone, 
 T. Henderson, D. Ranasinghe, V. G. Zakrzewski, J. Gao, N. Rega, 
 G. Zheng, W. Liang, M. Hada, M. Ehara, K. Toyota, R. Fukuda, 
 J. Hasegawa, M. Ishida, T. Nakajima, Y. Honda, O. Kitao, H. Nakai, 
 T. Vreven, K. Throssell, J. A. Montgomery, Jr., J. E. Peralta, 
 F. Ogliaro, M. J. Bearpark, J. J. Heyd, E. N. Brothers, K. N. Kudin, 
 V. N. Staroverov, T. A. Keith, R. Kobayashi, J. Normand, 
 K. Raghavachari, A. P. Rendell, J. C. Burant, S. S. Iyengar, 
 J. Tomasi, M. Cossi, J. M. Millam, M. Klene, C. Adamo, R. Cammi, 
 J. W. Ochterski, R. L. Martin, K. Morokuma, O. Farkas, 
 J. B. Foresman, and D. J. Fox, Gaussian, Inc., Wallingford CT, 2016.
 
 ******************************************
 Gaussian 16:  ES64L-G16RevB.01 20-Dec-2017
                31-Jul-2023 
 ******************************************
 %nprocshared=64
 Will use up to   64 processors via shared memory.
 %mem=64GB
 %chk=paddle_new_AGC_TEABr_opt_freq_6_31Gdp.chk
 ----------------------------------------------------------------------
 # opt=(calcall,tight,cartesian) freq b3lyp/gen nosymm scf=(qc,maxcycle
 =1024) pseudo=read
 ----------------------------------------------------------------------
 1/7=10,10=4,18=10,26=3,38=1/1,3;
 2/12=2,15=1,17=6,18=5,29=2,40=1/2;
 3/5=7,11=2,16=1,17=8,25=1,30=1,71=2,74=-5,140=1/1,2,3;
 4//1;
 5/5=2,7=1024,8=3,38=5/8;
 8/6=4,10=90,11=11/1;
 11/6=1,8=1,9=11,15=111,16=1,31=1/1,2,10;
 10/6=1,31=1/2;
 6/7=2,8=2,9=2,10=2,18=1,28=1/1;
 7/7=1,10=1,25=1,30=1/1,2,3,16;
 1/7=10,10=4,18=10,26=3/3(3);
 2/15=1,29=1/2;
 7/7=1,8=1,9=1,25=1,30=1,44=-1/16;
 99/12=1/99;
 2/15=1,29=1/2;
 3/5=7,6=1,11=2,16=1,17=8,25=1,30=1,71=2,74=-5,82=7,140=1/1,2,3;
 4/5=5,16=3,69=1/1;
 5/5=2,7=1024,8=3,38=5/8;
 8/6=4,10=90,11=11/1;
 11/6=1,8=1,9=11,15=111,16=1,31=1/1,2,10;
 10/6=1,31=1/2;
 7/7=1,10=1,25=1,30=1/1,2,3,16;
 1/7=10,10=4,18=10,26=3/3(-8);
 2/15=1,29=1/2;
 6/7=2,8=2,9=2,10=2,18=1,19=2,28=1/1;
 7/7=1,8=1,9=1,25=1,30=1,44=-1/16;
 99/12=1/99;
 -------------------------------------
 paddle_new_AGC_TEABr_opt_freq_6_31Gdp
 -------------------------------------
 Symbolic Z-matrix:
 Charge =  0 Multiplicity = 1
 Zn                   -1   -4.69449  -2.52891   2.32632 
 O                    -1   -4.60002  -0.93173   3.63136 
 O                    0    -2.33269  -0.90135   3.52486 
 O                    -1   -3.7714   -1.27973   0.82823 
 O                    0    -1.50528  -1.12562   0.68723 
 C                    -1   -3.46123  -0.46882   3.94274 
 C                    -1   -2.70354  -0.84264   0.32124 
 Zn                   0    -1.33251  -2.38767   2.25313 
 O                    0    -2.27391  -3.96497   1.00328 
 O                    -1   -4.53935  -4.11556   1.01425 
 O                    0    -1.31568  -3.66586   3.78777 
 O                    -1   -3.59321  -3.69443   3.77059 
 C                    -1   -3.3849   -4.48478   0.64137 
 C                    -1   -2.46758  -4.0416    4.21874 
 H                    -1   -3.45541   0.38383   4.64232 
 H                    -1   -2.79074  -0.14615  -0.52756 
 H                    -1   -3.34703  -5.33554  -0.0595 
 H                    -1   -2.45197  -4.74051   5.06989 
 C                    -1   -7.53384  -1.75151   3.14439 
 C                    -1   -8.92519  -1.77977   3.20973 
 C                    -1   -9.61549  -2.73787   2.46521 
 C                    -1   -8.88946  -3.63544   1.68034 
 C                    -1   -7.49932  -3.5449    1.66652 
 N                    -1   -6.83449  -2.61908   2.38606 
 H                    -1   -10.70019  -2.78423   2.49611 
 H                    -1   -6.94295  -1.03037   3.70008 
 H                    -1   -9.44925  -1.06304   3.8329 
 H                    -1   -9.38507  -4.39575   1.08621 
 H                    -1   -6.88162  -4.21449   1.07654 
 C                    0     2.33525   5.96181   0.72922 
 C                    0     2.40258   4.6281    0.81461 
 C                    0     2.11359   3.68332  -0.30962 
 O                    0     1.18718   2.65684   0.19588 
 C                    0     1.24165   1.39941  -0.52736 
 C                    0     2.25956   0.43748   0.0718 
 C                    0     2.51901  -0.82687  -0.77477 
 O                    0     1.68647  -0.13977   1.35544 
 H                    0     2.59324   6.60624   1.56477 
 H                    0     2.01682   6.45996  -0.1842 
 H                    0     2.70601   4.15052   1.74515 
 H                    0     3.03283   3.20396  -0.6838 
 H                    0     1.65085   4.20657  -1.15969 
 H                    0     1.52416   1.56044  -1.57461 
 H                    0     0.24161   0.95999  -0.46052 
 H                    0     3.18269   0.94308   0.33966 
 H                    0     3.56939  -1.10166  -0.82516 
 H                    0     2.10157  -0.77849  -1.77682 
 N                    -1    9.32365   7.87859  -9.41833 
 C                    -1    8.77519   8.66629  -10.62748 
 C                    -1    7.27043   8.62289  -10.87255 
 H                    -1    9.31304   8.2707   -11.50121 
 H                    -1    9.07822   9.7019   -10.45098 
 H                    -1    7.10358   9.15702  -11.81342 
 H                    -1    6.88374   7.6137   -11.01372 
 H                    -1    6.68334   9.12889  -10.10025 
 C                    -1    8.3918    8.04929  -8.23166 
 C                    -1    8.83977   7.40494  -6.92222 
 H                    -1    7.42815   7.64083  -8.53166 
 H                    -1    8.26601   9.12853  -8.10365 
 H                    -1    8.06075   7.5952   -6.17719 
 H                    -1    8.95072   6.32106  -7.00604 
 H                    -1    9.77023   7.82471  -6.53281 
 C                    -1    10.68837   8.48329  -9.05489 
 C                    -1    11.65487   8.71425  -10.21454 
 H                    -1    11.12876   7.80114  -8.32636 
 H                    -1    10.46651   9.42567  -8.54406 
 H                    -1    12.64171   8.90747  -9.78094 
 H                    -1    11.73079   7.86425  -10.89914 
 H                    -1    11.37934   9.58313  -10.81558 
 C                    -1    9.55968   6.39601  -9.75557 
 C                    -1    8.33127   5.54396  -10.04222 
 H                    -1    10.11973   5.99722  -8.90738 
 H                    -1    10.18644   6.39166  -10.65626 
 H                    -1    8.68431   4.51032  -10.11399 
 H                    -1    7.56308   5.57545  -9.26272 
 H                    -1    7.89699   5.78487  -11.01342 
 Br                   0     4.39602   1.42209  -2.37456 
 C                    0     1.34198  -1.43528   1.15993 
 O                    0     0.72199  -2.12512   1.98781 
 O                    0     1.77705  -1.91062  -0.03459 
 

 GradGradGradGradGradGradGradGradGradGradGradGradGradGradGradGradGradGrad
 Berny optimization.
 Initialization pass.
 No Z-matrix variables, so optimization will use Cartesian coordinates.
 Trust Radius=3.00D-01 FncErr=1.00D-07 GrdErr=1.00D-06 EigMax=2.50D+02 EigMin=1.00D-04
 Number of steps in this run=    250 maximum allowed number of steps=    480.
 GradGradGradGradGradGradGradGradGradGradGradGradGradGradGradGradGradGrad

 Symmetry turned off by external request.
 Stoichiometry    C24H39BrN2O12Zn2
 Framework group  C1[X(C24H39BrN2O12Zn2)]
 Deg. of freedom   234
 Full point group                 C1      NOp   1
                          Input orientation:                          
 ---------------------------------------------------------------------
 Center     Atomic      Atomic             Coordinates (Angstroms)
 Number     Number       Type             X           Y           Z
 ---------------------------------------------------------------------
      1         30           0       -4.694489   -2.528905    2.326317
      2          8           0       -4.600022   -0.931734    3.631360
      3          8           0       -2.332689   -0.901353    3.524862
      4          8           0       -3.771400   -1.279734    0.828231
      5          8           0       -1.505275   -1.125620    0.687226
      6          6           0       -3.461226   -0.468815    3.942742
      7          6           0       -2.703539   -0.842639    0.321243
      8         30           0       -1.332514   -2.387671    2.253125
      9          8           0       -2.273913   -3.964968    1.003278
     10          8           0       -4.539354   -4.115561    1.014246
     11          8           0       -1.315681   -3.665863    3.787773
     12          8           0       -3.593209   -3.694425    3.770586
     13          6           0       -3.384903   -4.484776    0.641370
     14          6           0       -2.467582   -4.041605    4.218740
     15          1           0       -3.455408    0.383834    4.642316
     16          1           0       -2.790739   -0.146153   -0.527563
     17          1           0       -3.347035   -5.335536   -0.059501
     18          1           0       -2.451967   -4.740511    5.069891
     19          6           0       -7.533844   -1.751514    3.144391
     20          6           0       -8.925190   -1.779770    3.209727
     21          6           0       -9.615492   -2.737870    2.465207
     22          6           0       -8.889458   -3.635442    1.680343
     23          6           0       -7.499316   -3.544901    1.666524
     24          7           0       -6.834486   -2.619084    2.386057
     25          1           0      -10.700185   -2.784227    2.496111
     26          1           0       -6.942948   -1.030371    3.700081
     27          1           0       -9.449248   -1.063042    3.832903
     28          1           0       -9.385065   -4.395750    1.086214
     29          1           0       -6.881618   -4.214494    1.076539
     30          6           0        2.335248    5.961807    0.729222
     31          6           0        2.402583    4.628101    0.814612
     32          6           0        2.113586    3.683324   -0.309624
     33          8           0        1.187176    2.656837    0.195879
     34          6           0        1.241654    1.399414   -0.527359
     35          6           0        2.259560    0.437482    0.071798
     36          6           0        2.519013   -0.826868   -0.774773
     37          8           0        1.686471   -0.139774    1.355436
     38          1           0        2.593235    6.606242    1.564768
     39          1           0        2.016823    6.459961   -0.184198
     40          1           0        2.706010    4.150520    1.745150
     41          1           0        3.032833    3.203963   -0.683795
     42          1           0        1.650848    4.206573   -1.159685
     43          1           0        1.524163    1.560436   -1.574612
     44          1           0        0.241607    0.959985   -0.460517
     45          1           0        3.182690    0.943082    0.339664
     46          1           0        3.569386   -1.101664   -0.825156
     47          1           0        2.101569   -0.778491   -1.776820
     48          7           0        9.323654    7.878593   -9.418327
     49          6           0        8.775192    8.666291  -10.627481
     50          6           0        7.270430    8.622886  -10.872553
     51          1           0        9.313044    8.270702  -11.501210
     52          1           0        9.078220    9.701899  -10.450984
     53          1           0        7.103577    9.157016  -11.813418
     54          1           0        6.883739    7.613699  -11.013723
     55          1           0        6.683343    9.128889  -10.100249
     56          6           0        8.391804    8.049291   -8.231660
     57          6           0        8.839774    7.404936   -6.922216
     58          1           0        7.428152    7.640829   -8.531655
     59          1           0        8.266006    9.128533   -8.103645
     60          1           0        8.060745    7.595195   -6.177194
     61          1           0        8.950718    6.321056   -7.006041
     62          1           0        9.770233    7.824714   -6.532814
     63          6           0       10.688373    8.483285   -9.054888
     64          6           0       11.654868    8.714255  -10.214541
     65          1           0       11.128756    7.801136   -8.326361
     66          1           0       10.466507    9.425674   -8.544057
     67          1           0       12.641714    8.907473   -9.780939
     68          1           0       11.730791    7.864246  -10.899138
     69          1           0       11.379340    9.583125  -10.815579
     70          6           0        9.559677    6.396005   -9.755568
     71          6           0        8.331274    5.543955  -10.042216
     72          1           0       10.119726    5.997221   -8.907378
     73          1           0       10.186439    6.391655  -10.656259
     74          1           0        8.684305    4.510323  -10.113993
     75          1           0        7.563082    5.575454   -9.262716
     76          1           0        7.896991    5.784870  -11.013421
     77         35           0        4.396022    1.422086   -2.374556
     78          6           0        1.341977   -1.435282    1.159929
     79          8           0        0.721987   -2.125123    1.987805
     80          8           0        1.777048   -1.910620   -0.034594
 ---------------------------------------------------------------------
 Rotational constants (GHZ):           0.1224535           0.0109021           0.0106779
 General basis read from cards:  (5D, 7F)
 ======================================================================================================
                                       Pseudopotential Parameters
 ======================================================================================================
  Center     Atomic      Valence      Angular      Power
  Number     Number     Electrons     Momentum     of R      Exponent        Coefficient   SO-Coeffient
 ======================================================================================================
    1         30           12
                                      F and up 
                                                     1      386.7379660      -18.00000000    0.00000000
                                                     2       72.8587359     -124.35274030    0.00000000
                                                     2       15.9066170      -30.66018220    0.00000000
                                                     2        4.3502340      -10.63589890    0.00000000
                                                     2        1.2842199       -0.76836230    0.00000000
                                      S - F
                                                     0       19.0867858        3.00000000    0.00000000
                                                     1        5.0231080       22.52342250    0.00000000
                                                     2        1.2701744       48.44659420    0.00000000
                                                     2        1.0671287      -44.55601190    0.00000000
                                                     2        0.9264190       12.99839580    0.00000000
                                      P - F
                                                     0       43.4927750        5.00000000    0.00000000
                                                     1       20.8692669       20.74355890    0.00000000
                                                     2       21.7118378       90.30271580    0.00000000
                                                     2        6.3616915       74.66103160    0.00000000
                                                     2        1.2291195        9.88944240    0.00000000
                                      D - F
                                                     2       13.5851800       -4.84903590    0.00000000
                                                     2        9.8373050        3.69133790    0.00000000
                                                     2        0.8373113       -0.50373190    0.00000000
    2          8
                                   No pseudopotential on this center.
    3          8
                                   No pseudopotential on this center.
    4          8
                                   No pseudopotential on this center.
    5          8
                                   No pseudopotential on this center.
    6          6
                                   No pseudopotential on this center.
    7          6
                                   No pseudopotential on this center.
    8         30           12
                                      F and up 
                                                     1      386.7379660      -18.00000000    0.00000000
                                                     2       72.8587359     -124.35274030    0.00000000
                                                     2       15.9066170      -30.66018220    0.00000000
                                                     2        4.3502340      -10.63589890    0.00000000
                                                     2        1.2842199       -0.76836230    0.00000000
                                      S - F
                                                     0       19.0867858        3.00000000    0.00000000
                                                     1        5.0231080       22.52342250    0.00000000
                                                     2        1.2701744       48.44659420    0.00000000
                                                     2        1.0671287      -44.55601190    0.00000000
                                                     2        0.9264190       12.99839580    0.00000000
                                      P - F
                                                     0       43.4927750        5.00000000    0.00000000
                                                     1       20.8692669       20.74355890    0.00000000
                                                     2       21.7118378       90.30271580    0.00000000
                                                     2        6.3616915       74.66103160    0.00000000
                                                     2        1.2291195        9.88944240    0.00000000
                                      D - F
                                                     2       13.5851800       -4.84903590    0.00000000
                                                     2        9.8373050        3.69133790    0.00000000
                                                     2        0.8373113       -0.50373190    0.00000000
    9          8
                                   No pseudopotential on this center.
   10          8
                                   No pseudopotential on this center.
   11          8
                                   No pseudopotential on this center.
   12          8
                                   No pseudopotential on this center.
   13          6
                                   No pseudopotential on this center.
   14          6
                                   No pseudopotential on this center.
   15          1
                                   No pseudopotential on this center.
   16          1
                                   No pseudopotential on this center.
   17          1
                                   No pseudopotential on this center.
   18          1
                                   No pseudopotential on this center.
   19          6
                                   No pseudopotential on this center.
   20          6
                                   No pseudopotential on this center.
   21          6
                                   No pseudopotential on this center.
   22          6
                                   No pseudopotential on this center.
   23          6
                                   No pseudopotential on this center.
   24          7
                                   No pseudopotential on this center.
   25          1
                                   No pseudopotential on this center.
   26          1
                                   No pseudopotential on this center.
   27          1
                                   No pseudopotential on this center.
   28          1
                                   No pseudopotential on this center.
   29          1
                                   No pseudopotential on this center.
   30          6
                                   No pseudopotential on this center.
   31          6
                                   No pseudopotential on this center.
   32          6
                                   No pseudopotential on this center.
   33          8
                                   No pseudopotential on this center.
   34          6
                                   No pseudopotential on this center.
   35          6
                                   No pseudopotential on this center.
   36          6
                                   No pseudopotential on this center.
   37          8
                                   No pseudopotential on this center.
   38          1
                                   No pseudopotential on this center.
   39          1
                                   No pseudopotential on this center.
   40          1
                                   No pseudopotential on this center.
   41          1
                                   No pseudopotential on this center.
   42          1
                                   No pseudopotential on this center.
   43          1
                                   No pseudopotential on this center.
   44          1
                                   No pseudopotential on this center.
   45          1
                                   No pseudopotential on this center.
   46          1
                                   No pseudopotential on this center.
   47          1
                                   No pseudopotential on this center.
   48          7
                                   No pseudopotential on this center.
   49          6
                                   No pseudopotential on this center.
   50          6
                                   No pseudopotential on this center.
   51          1
                                   No pseudopotential on this center.
   52          1
                                   No pseudopotential on this center.
   53          1
                                   No pseudopotential on this center.
   54          1
                                   No pseudopotential on this center.
   55          1
                                   No pseudopotential on this center.
   56          6
                                   No pseudopotential on this center.
   57          6
                                   No pseudopotential on this center.
   58          1
                                   No pseudopotential on this center.
   59          1
                                   No pseudopotential on this center.
   60          1
                                   No pseudopotential on this center.
   61          1
                                   No pseudopotential on this center.
   62          1
                                   No pseudopotential on this center.
   63          6
                                   No pseudopotential on this center.
   64          6
                                   No pseudopotential on this center.
   65          1
                                   No pseudopotential on this center.
   66          1
                                   No pseudopotential on this center.
   67          1
                                   No pseudopotential on this center.
   68          1
                                   No pseudopotential on this center.
   69          1
                                   No pseudopotential on this center.
   70          6
                                   No pseudopotential on this center.
   71          6
                                   No pseudopotential on this center.
   72          1
                                   No pseudopotential on this center.
   73          1
                                   No pseudopotential on this center.
   74          1
                                   No pseudopotential on this center.
   75          1
                                   No pseudopotential on this center.
   76          1
                                   No pseudopotential on this center.
   77         35
                                   No pseudopotential on this center.
   78          6
                                   No pseudopotential on this center.
   79          8
                                   No pseudopotential on this center.
   80          8
                                   No pseudopotential on this center.
 ======================================================================================================
   947 basis functions,  1654 primitive gaussians,   991 cartesian basis functions
   176 alpha electrons      176 beta electrons
       nuclear repulsion energy      5289.9930645190 Hartrees.
 NAtoms=   80 NActive=   80 NUniq=   80 SFac= 1.00D+00 NAtFMM=   60 NAOKFM=T Big=T
 Integral buffers will be    131072 words long.
 Raffenetti 2 integral format.
 Two-electron integral symmetry is turned off.
 One-electron integrals computed using PRISM.
   1 Symmetry operations used in ECPInt.
 ECPInt:  NShTT=   55278 NPrTT=  248328 LenC2=   28448 LenP2D=   76602.
 LDataN:  DoStor=T MaxTD1= 5 Len=  102
 NBasis=   947 RedAO= T EigKep=  7.29D-06  NBF=   947
 NBsUse=   947 1.00D-06 EigRej= -1.00D+00 NBFU=   947
 ExpMin= 3.50D-02 ExpMax= 5.74D+05 ExpMxC= 5.74D+03 IAcc=3 IRadAn=         5 AccDes= 0.00D+00
 Harris functional with IExCor=  402 and IRadAn=       5 diagonalized for initial guess.
 HarFok:  IExCor=  402 AccDes= 0.00D+00 IRadAn=         5 IDoV= 1 UseB2=F ITyADJ=14
 ICtDFT=  3500011 ScaDFX=  1.000000  1.000000  1.000000  1.000000
 FoFCou: FMM=F IPFlag=           0 FMFlag=      100000 FMFlg1=        2001
         NFxFlg=           0 DoJE=T BraDBF=F KetDBF=T FulRan=T
         wScrn=  0.000000 ICntrl=       500 IOpCl=  0 I1Cent=   200000004 NGrid=           0
         NMat0=    1 NMatS0=      1 NMatT0=    0 NMatD0=    1 NMtDS0=    0 NMtDT0=    0
 Symmetry not used in FoFCou.
 Gradient too large for Newton-Raphson -- use scaled steepest descent instead.
     Accept linear search using points  2 and  3.
 Gradient too large for Newton-Raphson -- use scaled steepest descent instead.
     Accept linear search using points  2 and  3.
 Gradient too large for Newton-Raphson -- use scaled steepest descent instead.
 Gradient too large for Newton-Raphson -- use scaled steepest descent instead.
     Accept linear search using points  1 and  2.
 Gradient too large for Newton-Raphson -- use scaled steepest descent instead.
     Accept linear search using points  2 and  3.
 Gradient too large for Newton-Raphson -- use scaled steepest descent instead.
     Accept linear search using points  1 and  2.
 LinEq1:  Iter=  0 NonCon=     1 RMS=1.52D-05 Max=1.02D-03 NDo=     1
 AX will form     1 AO Fock derivatives at one time.
 LinEq1:  Iter=  1 NonCon=     1 RMS=7.00D-06 Max=6.42D-04 NDo=     1
 LinEq1:  Iter=  2 NonCon=     1 RMS=3.36D-06 Max=3.59D-04 NDo=     1
 LinEq1:  Iter=  3 NonCon=     1 RMS=3.21D-06 Max=2.94D-04 NDo=     1
 LinEq1:  Iter=  4 NonCon=     1 RMS=1.38D-06 Max=1.17D-04 NDo=     1
 LinEq1:  Iter=  5 NonCon=     1 RMS=8.84D-07 Max=7.20D-05 NDo=     1
 LinEq1:  Iter=  6 NonCon=     1 RMS=6.20D-07 Max=5.46D-05 NDo=     1
 LinEq1:  Iter=  7 NonCon=     1 RMS=3.23D-07 Max=3.48D-05 NDo=     1
 LinEq1:  Iter=  8 NonCon=     1 RMS=2.15D-07 Max=1.60D-05 NDo=     1
 LinEq1:  Iter=  9 NonCon=     1 RMS=1.51D-07 Max=1.16D-05 NDo=     1
 LinEq1:  Iter= 10 NonCon=     1 RMS=1.08D-07 Max=8.79D-06 NDo=     1
 LinEq1:  Iter= 11 NonCon=     1 RMS=5.11D-08 Max=2.64D-06 NDo=     1
 LinEq1:  Iter= 12 NonCon=     1 RMS=3.25D-08 Max=2.20D-06 NDo=     1
 LinEq1:  Iter= 13 NonCon=     1 RMS=2.03D-08 Max=2.07D-06 NDo=     1
 LinEq1:  Iter= 14 NonCon=     1 RMS=1.40D-08 Max=1.03D-06 NDo=     1
 LinEq1:  Iter= 15 NonCon=     1 RMS=9.82D-09 Max=5.52D-07 NDo=     1
 LinEq1:  Iter= 16 NonCon=     1 RMS=6.60D-09 Max=5.26D-07 NDo=     1
 LinEq1:  Iter= 17 NonCon=     0 RMS=4.55D-09 Max=2.91D-07 NDo=     1
 Linear equations converged to 5.210D-08 5.210D-07 after    17 iterations.
     Accept linear search using points  1 and  2.
     Minimum is close to point  2 DX= -5.45D-04 DF= -7.28D-12 DXR=  5.45D-04 DFR=  2.83D-07 which will be used.
 LinEq1:  Iter=  0 NonCon=     1 RMS=5.26D-08 Max=5.06D-06 NDo=     1
 LinEq1:  Iter=  1 NonCon=     1 RMS=2.32D-08 Max=3.16D-06 NDo=     1
 LinEq1:  Iter=  2 NonCon=     1 RMS=1.21D-08 Max=1.20D-06 NDo=     1
 LinEq1:  Iter=  3 NonCon=     1 RMS=7.65D-09 Max=9.68D-07 NDo=     1
 LinEq1:  Iter=  4 NonCon=     1 RMS=6.98D-09 Max=8.74D-07 NDo=     1
 LinEq1:  Iter=  5 NonCon=     1 RMS=3.86D-09 Max=4.84D-07 NDo=     1
 LinEq1:  Iter=  6 NonCon=     1 RMS=2.75D-09 Max=2.78D-07 NDo=     1
 LinEq1:  Iter=  7 NonCon=     1 RMS=1.92D-09 Max=1.50D-07 NDo=     1
 LinEq1:  Iter=  8 NonCon=     1 RMS=1.11D-09 Max=7.70D-08 NDo=     1
 LinEq1:  Iter=  9 NonCon=     1 RMS=8.35D-10 Max=5.98D-08 NDo=     1
 LinEq1:  Iter= 10 NonCon=     1 RMS=4.94D-10 Max=4.41D-08 NDo=     1
 LinEq1:  Iter= 11 NonCon=     1 RMS=3.40D-10 Max=2.83D-08 NDo=     1
 LinEq1:  Iter= 12 NonCon=     1 RMS=1.89D-10 Max=1.61D-08 NDo=     1
 LinEq1:  Iter= 13 NonCon=     1 RMS=1.17D-10 Max=6.79D-09 NDo=     1
 LinEq1:  Iter= 14 NonCon=     1 RMS=5.46D-11 Max=3.01D-09 NDo=     1
 LinEq1:  Iter= 15 NonCon=     1 RMS=4.38D-11 Max=3.01D-09 NDo=     1
 LinEq1:  Iter= 16 NonCon=     1 RMS=2.89D-11 Max=1.86D-09 NDo=     1
 LinEq1:  Iter= 17 NonCon=     1 RMS=2.16D-11 Max=1.25D-09 NDo=     1
 LinEq1:  Iter= 18 NonCon=     0 RMS=1.29D-11 Max=6.13D-10 NDo=     1
 Linear equations converged to 1.043D-10 1.043D-09 after    18 iterations.
 SCF Done:  E(RB3LYP) =  -4653.09656370     a.u. after    9 cycles
            Convg  =    0.1941D-08                    54 Fock formations.
              S**2 =  0.0000                  -V/T =  1.9821
 DoSCS=F DFT=T ScalE2(SS,OS)=  1.000000  1.000000
 Range of M.O.s used for correlation:     1   947
 NBasis=   947 NAE=   176 NBE=   176 NFC=     0 NFV=     0
 NROrb=    947 NOA=   176 NOB=   176 NVA=   771 NVB=   771

 **** Warning!!: The largest alpha MO coefficient is  0.60716672D+02


 **** Warning!!: The smallest alpha delta epsilon is  0.43920954D-01

   1 Symmetry operations used in ECPInt.
 ECPInt:  NShTT=   55278 NPrTT=  248328 LenC2=   28448 LenP2D=   76602.
 LDataN:  DoStor=T MaxTD1= 6 Len=  172
 Number of processors reduced to   8 by ecpmxn.
 Symmetrizing basis deriv contribution to polar:
 IMax=3 JMax=2 DiffMx= 0.00D+00
 G2DrvN: will do    81 centers at a time, making    1 passes.
 Calling FoFCou, ICntrl=  3107 FMM=T I1Cent=   0 AccDes= 0.00D+00.
 End of G2Drv F.D. properties file   721 does not exist.
 End of G2Drv F.D. properties file   722 does not exist.
 End of G2Drv F.D. properties file   788 does not exist.
          IDoAtm=00101001101000000000000000000111111111111111111000
          IDoAtm=000000000000000000000000001111
          Differentiating once with respect to electric field.
                with respect to dipole field.
          Differentiating once with respect to nuclear coordinates.
 CalDSu exits because no D1Ps are significant.
          There are    84 degrees of freedom in the 1st order CPHF.  IDoFFX=6 NUNeed=     3.
     84 vectors produced by pass  0 Test12= 1.62D-13 1.19D-09 XBig12= 3.65D+02 5.72D+00.
 AX will form    84 AO Fock derivatives at one time.
     84 vectors produced by pass  1 Test12= 1.62D-13 1.19D-09 XBig12= 1.79D+02 3.72D+00.
     84 vectors produced by pass  2 Test12= 1.62D-13 1.19D-09 XBig12= 2.55D+01 1.16D+00.
     84 vectors produced by pass  3 Test12= 1.62D-13 1.19D-09 XBig12= 3.51D+00 4.68D-01.
     84 vectors produced by pass  4 Test12= 1.62D-13 1.19D-09 XBig12= 2.78D-01 1.21D-01.
     84 vectors produced by pass  5 Test12= 1.62D-13 1.19D-09 XBig12= 5.24D-03 7.69D-03.
     67 vectors produced by pass  6 Test12= 1.62D-13 1.19D-09 XBig12= 4.21D-05 1.14D-03.
     25 vectors produced by pass  7 Test12= 1.62D-13 1.19D-09 XBig12= 1.90D-07 1.13D-04.
     17 vectors produced by pass  8 Test12= 1.62D-13 1.19D-09 XBig12= 2.47D-09 7.15D-06.
      3 vectors produced by pass  9 Test12= 1.62D-13 1.19D-09 XBig12= 3.23D-11 1.31D-06.
      3 vectors produced by pass 10 Test12= 1.62D-13 1.19D-09 XBig12= 4.13D-13 1.51D-07.
      3 vectors produced by pass 11 Test12= 1.62D-13 1.19D-09 XBig12= 3.60D-15 9.75D-09.
 InvSVY:  IOpt=1 It=  1 EMax= 1.78D-14
 Solved reduced A of dimension   622 with    84 vectors.
 Isotropic polarizability for W=    0.000000      412.37 Bohr**3.
 End of Minotr F.D. properties file   721 does not exist.
 End of Minotr F.D. properties file   722 does not exist.
 End of Minotr F.D. properties file   788 does not exist.

 **********************************************************************

            Population analysis using the SCF Density.

 **********************************************************************

 Alpha  occ. eigenvalues -- -482.48961 -61.57418 -56.14152 -56.14134 -56.14118
 Alpha  occ. eigenvalues --  -19.16150 -19.15858 -19.11424 -19.09576 -19.09182
 Alpha  occ. eigenvalues --  -19.09158 -19.08654 -19.08649 -19.08523 -19.08485
 Alpha  occ. eigenvalues --  -19.07799 -19.07790 -14.56575 -14.36248 -10.35484
 Alpha  occ. eigenvalues --  -10.35249 -10.35038 -10.34586 -10.33711 -10.29488
 Alpha  occ. eigenvalues --  -10.29045 -10.28701 -10.28315 -10.25393 -10.25392
 Alpha  occ. eigenvalues --  -10.25384 -10.25371 -10.22961 -10.22954 -10.21692
 Alpha  occ. eigenvalues --  -10.20776 -10.20428 -10.20421 -10.20380 -10.17806
 Alpha  occ. eigenvalues --  -10.17482 -10.14895 -10.14236  -8.34391  -6.35198
 Alpha  occ. eigenvalues --   -6.35181  -6.35171  -2.47303  -2.47300  -2.47292
 Alpha  occ. eigenvalues --   -2.47278  -2.47277  -1.11570  -1.09838  -1.01229
 Alpha  occ. eigenvalues --   -1.00709  -1.00652  -1.00355  -0.99188  -0.98715
 Alpha  occ. eigenvalues --   -0.95911  -0.95811  -0.92543  -0.92295  -0.91932
 Alpha  occ. eigenvalues --   -0.91906  -0.89888  -0.89740  -0.89346  -0.84382
 Alpha  occ. eigenvalues --   -0.81453  -0.77183  -0.76935  -0.76475  -0.75432
 Alpha  occ. eigenvalues --   -0.75159  -0.73379  -0.68676  -0.65807  -0.64179
 Alpha  occ. eigenvalues --   -0.63729  -0.63044  -0.62959  -0.61774  -0.61120
 Alpha  occ. eigenvalues --   -0.58532  -0.58103  -0.57866  -0.57348  -0.57253
 Alpha  occ. eigenvalues --   -0.56617  -0.56318  -0.55971  -0.55631  -0.55532
 Alpha  occ. eigenvalues --   -0.55436  -0.55282  -0.55006  -0.54932  -0.54427
 Alpha  occ. eigenvalues --   -0.54385  -0.54181  -0.54006  -0.53173  -0.53117
 Alpha  occ. eigenvalues --   -0.53042  -0.51682  -0.51645  -0.50931  -0.50594
 Alpha  occ. eigenvalues --   -0.50222  -0.50026  -0.49804  -0.49291  -0.48995
 Alpha  occ. eigenvalues --   -0.48701  -0.47843  -0.47503  -0.47495  -0.46965
 Alpha  occ. eigenvalues --   -0.46739  -0.46162  -0.45806  -0.45421  -0.45339
 Alpha  occ. eigenvalues --   -0.44615  -0.44083  -0.43580  -0.43026  -0.42708
 Alpha  occ. eigenvalues --   -0.42546  -0.42144  -0.41785  -0.41158  -0.41016
 Alpha  occ. eigenvalues --   -0.40843  -0.40748  -0.40370  -0.40105  -0.38586
 Alpha  occ. eigenvalues --   -0.37947  -0.37876  -0.37119  -0.36986  -0.36715
 Alpha  occ. eigenvalues --   -0.36433  -0.36346  -0.34564  -0.33251  -0.32418
 Alpha  occ. eigenvalues --   -0.32330  -0.31352  -0.30630  -0.30184  -0.28664
 Alpha  occ. eigenvalues --   -0.27459  -0.27229  -0.27138  -0.26981  -0.26165
 Alpha  occ. eigenvalues --   -0.25189  -0.24906  -0.24879  -0.23900  -0.23720
 Alpha  occ. eigenvalues --   -0.23505  -0.23033  -0.22877  -0.22827  -0.22760
 Alpha  occ. eigenvalues --   -0.22247  -0.20946  -0.20192  -0.13886  -0.13583
 Alpha  occ. eigenvalues --   -0.13538
 Alpha virt. eigenvalues --   -0.09146  -0.07431  -0.07262  -0.06872  -0.05135
 Alpha virt. eigenvalues --   -0.04969  -0.04616  -0.03993  -0.03583  -0.03303
 Alpha virt. eigenvalues --   -0.02924  -0.02317  -0.01351  -0.01187  -0.00491
 Alpha virt. eigenvalues --    0.00139   0.00157   0.00500   0.00876   0.01204
 Alpha virt. eigenvalues --    0.01809   0.02010   0.02582   0.03424   0.03476
 Alpha virt. eigenvalues --    0.03566   0.03619   0.04092   0.04324   0.04622
 Alpha virt. eigenvalues --    0.04737   0.04877   0.05018   0.05093   0.05455
 Alpha virt. eigenvalues --    0.05557   0.05598   0.05799   0.05902   0.06164
 Alpha virt. eigenvalues --    0.06243   0.06351   0.06704   0.06737   0.07042
 Alpha virt. eigenvalues --    0.07080   0.07433   0.07542   0.07733   0.08091
 Alpha virt. eigenvalues --    0.08378   0.08543   0.08553   0.08797   0.08884
 Alpha virt. eigenvalues --    0.08983   0.09469   0.09605   0.09794   0.10033
 Alpha virt. eigenvalues --    0.10080   0.10492   0.10553   0.10736   0.10844
 Alpha virt. eigenvalues --    0.11100   0.11215   0.11543   0.11607   0.11718
 Alpha virt. eigenvalues --    0.11888   0.12111   0.12144   0.12284   0.12593
 Alpha virt. eigenvalues --    0.12691   0.12769   0.12831   0.13089   0.13277
 Alpha virt. eigenvalues --    0.13532   0.13795   0.13976   0.14263   0.14555
 Alpha virt. eigenvalues --    0.14718   0.14772   0.15068   0.15248   0.15372
 Alpha virt. eigenvalues --    0.15436   0.15452   0.15720   0.15928   0.15980
 Alpha virt. eigenvalues --    0.16128   0.16374   0.16598   0.16923   0.17097
 Alpha virt. eigenvalues --    0.17406   0.17579   0.17633   0.18020   0.18164
 Alpha virt. eigenvalues --    0.18283   0.18427   0.18468   0.18834   0.18977
 Alpha virt. eigenvalues --    0.19211   0.19349   0.19455   0.19562   0.19687
 Alpha virt. eigenvalues --    0.19833   0.19968   0.20253   0.20806   0.20988
 Alpha virt. eigenvalues --    0.21199   0.21387   0.21443   0.21642   0.21678
 Alpha virt. eigenvalues --    0.22038   0.22105   0.22208   0.22331   0.22710
 Alpha virt. eigenvalues --    0.22833   0.23199   0.23450   0.23741   0.23895
 Alpha virt. eigenvalues --    0.24044   0.24318   0.24351   0.24814   0.25040
 Alpha virt. eigenvalues --    0.25397   0.25693   0.25729   0.26066   0.26211
 Alpha virt. eigenvalues --    0.26434   0.26483   0.26829   0.26982   0.27341
 Alpha virt. eigenvalues --    0.27533   0.27697   0.27807   0.27992   0.28779
 Alpha virt. eigenvalues --    0.28791   0.28934   0.29118   0.29192   0.29307
 Alpha virt. eigenvalues --    0.29753   0.29842   0.30204   0.30462   0.30575
 Alpha virt. eigenvalues --    0.30937   0.31143   0.31197   0.31508   0.31952
 Alpha virt. eigenvalues --    0.32756   0.32861   0.33142   0.33250   0.33353
 Alpha virt. eigenvalues --    0.33571   0.34147   0.34365   0.34755   0.35121
 Alpha virt. eigenvalues --    0.35376   0.35474   0.35751   0.35888   0.35992
 Alpha virt. eigenvalues --    0.36475   0.36865   0.37229   0.37607   0.37739
 Alpha virt. eigenvalues --    0.37823   0.38364   0.38594   0.38889   0.39015
 Alpha virt. eigenvalues --    0.39308   0.39563   0.39727   0.40097   0.40523
 Alpha virt. eigenvalues --    0.40830   0.41075   0.41522   0.41736   0.42020
 Alpha virt. eigenvalues --    0.42351   0.42533   0.42740   0.43382   0.43553
 Alpha virt. eigenvalues --    0.44210   0.44595   0.44639   0.44687   0.45241
 Alpha virt. eigenvalues --    0.45338   0.45581   0.46008   0.46486   0.46606
 Alpha virt. eigenvalues --    0.47222   0.47432   0.48050   0.48629   0.48833
 Alpha virt. eigenvalues --    0.48945   0.49470   0.49628   0.50040   0.50182
 Alpha virt. eigenvalues --    0.50405   0.50654   0.50698   0.51127   0.51305
 Alpha virt. eigenvalues --    0.51878   0.52061   0.52456   0.52986   0.53421
 Alpha virt. eigenvalues --    0.53840   0.54195   0.55256   0.55391   0.55913
 Alpha virt. eigenvalues --    0.56180   0.57027   0.57104   0.57347   0.57377
 Alpha virt. eigenvalues --    0.57960   0.58557   0.58691   0.58918   0.59681
 Alpha virt. eigenvalues --    0.59972   0.60637   0.60707   0.61178   0.61339
 Alpha virt. eigenvalues --    0.62012   0.62297   0.62504   0.64234   0.64603
 Alpha virt. eigenvalues --    0.64695   0.65038   0.65665   0.66175   0.66416
 Alpha virt. eigenvalues --    0.67850   0.67961   0.68813   0.69698   0.69758
 Alpha virt. eigenvalues --    0.70168   0.70284   0.70886   0.71060   0.71869
 Alpha virt. eigenvalues --    0.72141   0.73034   0.73275   0.73882   0.74672
 Alpha virt. eigenvalues --    0.74835   0.74908   0.75257   0.75719   0.76180
 Alpha virt. eigenvalues --    0.76656   0.77478   0.77651   0.78017   0.79520
 Alpha virt. eigenvalues --    0.79607   0.80416   0.80844   0.81459   0.82289
 Alpha virt. eigenvalues --    0.82787   0.83349   0.83864   0.84109   0.84461
 Alpha virt. eigenvalues --    0.84584   0.84988   0.85539   0.85955   0.86378
 Alpha virt. eigenvalues --    0.87103   0.87843   0.88311   0.88462   0.88493
 Alpha virt. eigenvalues --    0.88906   0.89191   0.89343   0.89380   0.89789
 Alpha virt. eigenvalues --    0.90492   0.91070   0.91610   0.92045   0.92246
 Alpha virt. eigenvalues --    0.92746   0.92951   0.93385   0.93422   0.94022
 Alpha virt. eigenvalues --    0.94260   0.95014   0.95129   0.95392   0.95971
 Alpha virt. eigenvalues --    0.96322   0.97022   0.97357   0.97658   0.97791
 Alpha virt. eigenvalues --    0.98845   0.99193   0.99261   1.00173   1.01063
 Alpha virt. eigenvalues --    1.01297   1.01705   1.02070   1.02605   1.02781
 Alpha virt. eigenvalues --    1.03500   1.03585   1.03634   1.04392   1.04508
 Alpha virt. eigenvalues --    1.04599   1.04989   1.05625   1.06178   1.07044
 Alpha virt. eigenvalues --    1.07146   1.07901   1.08354   1.09075   1.09151
 Alpha virt. eigenvalues --    1.10306   1.11556   1.12138   1.12746   1.13700
 Alpha virt. eigenvalues --    1.14560   1.14672   1.15414   1.15774   1.16596
 Alpha virt. eigenvalues --    1.16842   1.17856   1.18415   1.19582   1.19927
 Alpha virt. eigenvalues --    1.20070   1.20788   1.21521   1.21842   1.22454
 Alpha virt. eigenvalues --    1.23457   1.23558   1.23898   1.23924   1.24765
 Alpha virt. eigenvalues --    1.24804   1.25038   1.25420   1.25846   1.26968
 Alpha virt. eigenvalues --    1.27004   1.27327   1.28190   1.29435   1.29605
 Alpha virt. eigenvalues --    1.29892   1.30304   1.31076   1.31518   1.31601
 Alpha virt. eigenvalues --    1.31949   1.32330   1.32856   1.33607   1.34223
 Alpha virt. eigenvalues --    1.35792   1.36210   1.36438   1.37777   1.37884
 Alpha virt. eigenvalues --    1.38517   1.38637   1.38970   1.39202   1.39527
 Alpha virt. eigenvalues --    1.39915   1.40171   1.41415   1.42133   1.42315
 Alpha virt. eigenvalues --    1.42876   1.43500   1.43668   1.44166   1.44313
 Alpha virt. eigenvalues --    1.45459   1.45770   1.45937   1.47306   1.47525
 Alpha virt. eigenvalues --    1.47893   1.48012   1.48471   1.48584   1.49169
 Alpha virt. eigenvalues --    1.49689   1.49932   1.50121   1.50644   1.50747
 Alpha virt. eigenvalues --    1.51879   1.51978   1.52220   1.53013   1.53075
 Alpha virt. eigenvalues --    1.53681   1.54188   1.54996   1.56486   1.56550
 Alpha virt. eigenvalues --    1.57184   1.57876   1.58446   1.58713   1.58791
 Alpha virt. eigenvalues --    1.59787   1.60088   1.60688   1.61489   1.62154
 Alpha virt. eigenvalues --    1.62437   1.62798   1.64287   1.64997   1.66579
 Alpha virt. eigenvalues --    1.67843   1.68581   1.69350   1.70474   1.70527
 Alpha virt. eigenvalues --    1.71380   1.72110   1.72349   1.72769   1.73226
 Alpha virt. eigenvalues --    1.73563   1.74588   1.75898   1.76397   1.76807
 Alpha virt. eigenvalues --    1.77923   1.78012   1.78266   1.80513   1.80812
 Alpha virt. eigenvalues --    1.81388   1.82548   1.82565   1.83221   1.83732
 Alpha virt. eigenvalues --    1.84183   1.84431   1.85194   1.85445   1.85865
 Alpha virt. eigenvalues --    1.86406   1.86815   1.86954   1.87043   1.87766
 Alpha virt. eigenvalues --    1.87949   1.88157   1.88390   1.89342   1.89373
 Alpha virt. eigenvalues --    1.89747   1.90395   1.90583   1.91618   1.92375
 Alpha virt. eigenvalues --    1.92461   1.93403   1.93447   1.93579   1.94040
 Alpha virt. eigenvalues --    1.94289   1.94638   1.94695   1.94875   1.95263
 Alpha virt. eigenvalues --    1.95488   1.95966   1.96554   1.96934   1.96984
 Alpha virt. eigenvalues --    1.97033   1.97262   1.97394   1.98122   1.98290
 Alpha virt. eigenvalues --    1.98694   1.99183   1.99996   2.00097   2.00144
 Alpha virt. eigenvalues --    2.00589   2.00683   2.00707   2.00929   2.01128
 Alpha virt. eigenvalues --    2.01460   2.01500   2.01821   2.02405   2.02592
 Alpha virt. eigenvalues --    2.02794   2.03004   2.03366   2.03942   2.04132
 Alpha virt. eigenvalues --    2.04163   2.04580   2.04878   2.05176   2.05327
 Alpha virt. eigenvalues --    2.06099   2.06622   2.06669   2.08090   2.08240
 Alpha virt. eigenvalues --    2.09146   2.10057   2.10124   2.10452   2.10655
 Alpha virt. eigenvalues --    2.11349   2.11631   2.12745   2.13702   2.14340
 Alpha virt. eigenvalues --    2.14774   2.15587   2.15828   2.17470   2.18639
 Alpha virt. eigenvalues --    2.18684   2.19254   2.20502   2.20538   2.21659
 Alpha virt. eigenvalues --    2.22294   2.22489   2.24281   2.24971   2.25358
 Alpha virt. eigenvalues --    2.25911   2.25998   2.26076   2.27235   2.28258
 Alpha virt. eigenvalues --    2.28779   2.28963   2.29349   2.29646   2.29794
 Alpha virt. eigenvalues --    2.29857   2.30175   2.30508   2.30772   2.31158
 Alpha virt. eigenvalues --    2.31412   2.32331   2.32918   2.33283   2.33775
 Alpha virt. eigenvalues --    2.34240   2.34778   2.36370   2.37053   2.37114
 Alpha virt. eigenvalues --    2.37214   2.37825   2.38634   2.38671   2.40178
 Alpha virt. eigenvalues --    2.40243   2.40360   2.41433   2.42897   2.44420
 Alpha virt. eigenvalues --    2.44535   2.45740   2.47581   2.47752   2.49969
 Alpha virt. eigenvalues --    2.50447   2.51121   2.52095   2.52374   2.52971
 Alpha virt. eigenvalues --    2.54423   2.54472   2.55296   2.55320   2.55824
 Alpha virt. eigenvalues --    2.56595   2.57078   2.57746   2.58303   2.58871
 Alpha virt. eigenvalues --    2.59798   2.60299   2.60686   2.61264   2.61979
 Alpha virt. eigenvalues --    2.62279   2.62382   2.62614   2.62964   2.62999
 Alpha virt. eigenvalues --    2.63682   2.65857   2.65891   2.66723   2.67213
 Alpha virt. eigenvalues --    2.67258   2.68018   2.69242   2.69348   2.69764
 Alpha virt. eigenvalues --    2.70287   2.70893   2.71179   2.71979   2.72329
 Alpha virt. eigenvalues --    2.72485   2.72650   2.72746   2.73354   2.73580
 Alpha virt. eigenvalues --    2.73588   2.73972   2.74614   2.76445   2.76877
 Alpha virt. eigenvalues --    2.77924   2.78615   2.79421   2.79449   2.80645
 Alpha virt. eigenvalues --    2.80772   2.80874   2.83373   2.83616   2.83823
 Alpha virt. eigenvalues --    2.83956   2.84422   2.84514   2.84642   2.84929
 Alpha virt. eigenvalues --    2.85137   2.86086   2.86539   2.86628   2.87047
 Alpha virt. eigenvalues --    2.87114   2.88449   2.92965   2.94010   2.96163
 Alpha virt. eigenvalues --    2.98603   2.99367   3.01832   3.02531   3.04947
 Alpha virt. eigenvalues --    3.05241   3.06870   3.06954   3.07589   3.08114
 Alpha virt. eigenvalues --    3.08489   3.09072   3.10178   3.10721   3.11424
 Alpha virt. eigenvalues --    3.13033   3.16066   3.16838   3.16982   3.17685
 Alpha virt. eigenvalues --    3.17971   3.18892   3.19909   3.20847   3.22261
 Alpha virt. eigenvalues --    3.23129   3.24019   3.24562   3.25132   3.26378
 Alpha virt. eigenvalues --    3.27171   3.28575   3.28716   3.31683   3.32028
 Alpha virt. eigenvalues --    3.32674   3.32695   3.33078   3.34528   3.37171
 Alpha virt. eigenvalues --    3.37809   3.39088   3.40327   3.41522   3.41551
 Alpha virt. eigenvalues --    3.42988   3.43920   3.43946   3.43969   3.44689
 Alpha virt. eigenvalues --    3.45177   3.46465   3.49601   3.52168   3.52709
 Alpha virt. eigenvalues --    3.52819   3.53524   3.55893   3.56069   3.58224
 Alpha virt. eigenvalues --    3.60957   3.73735   3.92944   8.80124  11.21072
 Alpha virt. eigenvalues --   11.58155
          Condensed to atoms (all electrons):
 Mulliken charges:
               1
     1  Zn   0.737925
     2  O   -0.504619
     3  O   -0.449444
     4  O   -0.426478
     5  O   -0.489709
     6  C    0.456751
     7  C    0.439646
     8  Zn   0.600383
     9  O   -0.456377
    10  O   -0.502914
    11  O   -0.423107
    12  O   -0.440442
    13  C    0.454549
    14  C    0.416069
    15  H    0.088807
    16  H    0.085313
    17  H    0.086172
    18  H    0.088724
    19  C   -0.298185
    20  C    0.067255
    21  C   -0.561521
    22  C    0.068568
    23  C   -0.293925
    24  N    0.204243
    25  H    0.140270
    26  H    0.198551
    27  H    0.140926
    28  H    0.140578
    29  H    0.198067
    30  C   -0.418127
    31  C    0.274554
    32  C   -0.348060
    33  O   -0.338042
    34  C   -0.328123
    35  C    0.202507
    36  C   -0.179566
    37  O   -0.274294
    38  H    0.122260
    39  H    0.119184
    40  H    0.134172
    41  H    0.194014
    42  H    0.113876
    43  H    0.174833
    44  H    0.157420
    45  H    0.187930
    46  H    0.198018
    47  H    0.178806
    48  N   -0.710976
    49  C    0.077311
    50  C   -0.611495
    51  H    0.190612
    52  H    0.187187
    53  H    0.184256
    54  H    0.174634
    55  H    0.180326
    56  C    0.047749
    57  C   -0.554755
    58  H    0.196353
    59  H    0.190236
    60  H    0.199916
    61  H    0.181968
    62  H    0.171836
    63  C    0.118761
    64  C   -0.536729
    65  H    0.188775
    66  H    0.193757
    67  H    0.187407
    68  H    0.170941
    69  H    0.174141
    70  C    0.030124
    71  C   -0.539530
    72  H    0.188325
    73  H    0.180795
    74  H    0.191386
    75  H    0.181498
    76  H    0.165170
    77  Br  -0.819111
    78  C    0.560442
    79  O   -0.390703
    80  O   -0.288046
 Sum of Mulliken charges =   0.00000
 Mulliken charges with hydrogens summed into heavy atoms:
               1
     1  Zn   0.737925
     2  O   -0.504619
     3  O   -0.449444
     4  O   -0.426478
     5  O   -0.489709
     6  C    0.545558
     7  C    0.524959
     8  Zn   0.600383
     9  O   -0.456377
    10  O   -0.502914
    11  O   -0.423107
    12  O   -0.440442
    13  C    0.540721
    14  C    0.504793
    19  C   -0.099634
    20  C    0.208181
    21  C   -0.421251
    22  C    0.209146
    23  C   -0.095858
    24  N    0.204243
    30  C   -0.176684
    31  C    0.408726
    32  C   -0.040170
    33  O   -0.338042
    34  C    0.004131
    35  C    0.390437
    36  C    0.197258
    37  O   -0.274294
    48  N   -0.710976
    49  C    0.455110
    50  C   -0.072279
    56  C    0.434337
    57  C   -0.001034
    63  C    0.501292
    64  C   -0.004239
    70  C    0.399243
    71  C   -0.001475
    77  Br  -0.819111
    78  C    0.560442
    79  O   -0.390703
    80  O   -0.288046
 Electronic spatial extent (au):  <R**2>=          94257.3388
 Charge=              0.0000 electrons
 Dipole moment (field-independent basis, Debye):
    X=             26.9329    Y=             34.9739    Z=            -42.1576  Tot=             61.0395
 Quadrupole moment (field-independent basis, Debye-Ang):
   XX=            144.0148   YY=             -2.4655   ZZ=            126.7254
   XY=            330.6909   XZ=           -386.1999   YZ=           -326.0961
 Traceless Quadrupole moment (field-independent basis, Debye-Ang):
   XX=             54.5899   YY=            -91.8904   ZZ=             37.3005
   XY=            330.6909   XZ=           -386.1999   YZ=           -326.0961
 Octapole moment (field-independent basis, Debye-Ang**2):
  XXX=           2366.4369  YYY=           1670.9892  ZZZ=          -3347.9619  XYY=           2469.9326
  XXY=           2707.9168  XXZ=          -3275.5615  XZZ=           3654.7237  YZZ=           3127.3329
  YYZ=          -2547.3161  XYZ=          -3171.5212
 Hexadecapole moment (field-independent basis, Debye-Ang**3):
 XXXX=          -8282.4316 YYYY=         -11364.5586 ZZZZ=           3656.1184 XXXY=          15498.2137
 XXXZ=         -19294.7911 YYYX=           4923.0351 YYYZ=          -7770.9040 ZZZX=         -19050.4662
 ZZZY=         -17748.0156 XXYY=          12297.7437 XXZZ=          22023.7340 YYZZ=          15279.7130
 XXYZ=         -25563.0032 YYXZ=         -19268.8218 ZZXY=          24945.2030
 N-N= 5.289993064519D+03 E-N=-2.176673358673D+04  KE= 4.737685053857D+03
  Exact polarizability: 459.117  36.275 409.005 -39.294   2.133 369.000
 Approx polarizability: 615.653  18.284 554.861 -23.698  26.601 511.583
   1 Symmetry operations used in ECPInt.
 ECPInt:  NShTT=   55278 NPrTT=  248328 LenC2=   28448 LenP2D=   76602.
 LDataN:  DoStor=T MaxTD1= 7 Len=  274
 Calling FoFJK, ICntrl=    100127 FMM=F ISym2X=0 I1Cent= 0 IOpClX= 0 NMat=1 NMatS=1 NMatT=0.
 -------------------------------------------------------------------
 Center     Atomic                   Forces (Hartrees/Bohr)
 Number     Number              X              Y              Z
 -------------------------------------------------------------------
      1       30          -0.000000000   -0.000000000   -0.000000000
      2        8          -0.000000000   -0.000000000   -0.000000000
      3        8          -0.024160135    0.013568749    0.012412867
      4        8          -0.000000000   -0.000000000   -0.000000000
      5        8          -0.022115009    0.008110815   -0.010210496
      6        6          -0.000000000   -0.000000000   -0.000000000
      7        6          -0.000000000   -0.000000000   -0.000000000
      8       30          -0.007531021   -0.000008224   -0.000410196
      9        8          -0.023778950   -0.015275384   -0.011179127
     10        8          -0.000000000   -0.000000000   -0.000000000
     11        8          -0.018719046   -0.009572404    0.011182437
     12        8          -0.000000000   -0.000000000   -0.000000000
     13        6          -0.000000000   -0.000000000   -0.000000000
     14        6          -0.000000000   -0.000000000   -0.000000000
     15        1          -0.000000000   -0.000000000   -0.000000000
     16        1          -0.000000000   -0.000000000   -0.000000000
     17        1          -0.000000000   -0.000000000   -0.000000000
     18        1          -0.000000000   -0.000000000   -0.000000000
     19        6          -0.000000000   -0.000000000   -0.000000000
     20        6          -0.000000000   -0.000000000   -0.000000000
     21        6          -0.000000000   -0.000000000   -0.000000000
     22        6          -0.000000000   -0.000000000   -0.000000000
     23        6          -0.000000000   -0.000000000   -0.000000000
     24        7          -0.000000000   -0.000000000   -0.000000000
     25        1          -0.000000000   -0.000000000   -0.000000000
     26        1          -0.000000000   -0.000000000   -0.000000000
     27        1          -0.000000000   -0.000000000   -0.000000000
     28        1          -0.000000000   -0.000000000   -0.000000000
     29        1          -0.000000000   -0.000000000   -0.000000000
     30        6          -0.000428665   -0.000934329    0.000081000
     31        6           0.000243344    0.000609264   -0.001184810
     32        6          -0.009726145   -0.013058615    0.004176491
     33        8           0.009798359   -0.001350660   -0.012908133
     34        6           0.002025630    0.014167011    0.007700278
     35        6          -0.008683177   -0.012536356    0.011324464
     36        6          -0.010732226   -0.008349318    0.014569127
     37        8          -0.000525912   -0.016757664   -0.015088215
     38        1           0.000371597   -0.000463515    0.000689878
     39        1          -0.000194011   -0.000472186   -0.000576007
     40        1           0.000304110    0.000581434    0.000601527
     41        1          -0.000889943    0.000460189    0.001572342
     42        1          -0.000534816   -0.000445095    0.000524983
     43        1          -0.000885726    0.000616190    0.000310361
     44        1          -0.000132535    0.000235303   -0.000220445
     45        1           0.000359064    0.000091697    0.001444241
     46        1           0.000330461   -0.001036933    0.000829759
     47        1          -0.001112302   -0.000353143   -0.000584489
     48        7          -0.000000000   -0.000000000   -0.000000000
     49        6          -0.000000000   -0.000000000   -0.000000000
     50        6          -0.000000000   -0.000000000   -0.000000000
     51        1          -0.000000000   -0.000000000   -0.000000000
     52        1          -0.000000000   -0.000000000   -0.000000000
     53        1          -0.000000000   -0.000000000   -0.000000000
     54        1          -0.000000000   -0.000000000   -0.000000000
     55        1          -0.000000000   -0.000000000   -0.000000000
     56        6          -0.000000000   -0.000000000   -0.000000000
     57        6          -0.000000000   -0.000000000   -0.000000000
     58        1          -0.000000000   -0.000000000   -0.000000000
     59        1          -0.000000000   -0.000000000   -0.000000000
     60        1          -0.000000000   -0.000000000   -0.000000000
     61        1          -0.000000000   -0.000000000   -0.000000000
     62        1          -0.000000000   -0.000000000   -0.000000000
     63        6          -0.000000000   -0.000000000   -0.000000000
     64        6          -0.000000000   -0.000000000   -0.000000000
     65        1          -0.000000000   -0.000000000   -0.000000000
     66        1          -0.000000000   -0.000000000   -0.000000000
     67        1          -0.000000000   -0.000000000   -0.000000000
     68        1          -0.000000000   -0.000000000   -0.000000000
     69        1          -0.000000000   -0.000000000   -0.000000000
     70        6          -0.000000000   -0.000000000   -0.000000000
     71        6          -0.000000000   -0.000000000   -0.000000000
     72        1          -0.000000000   -0.000000000   -0.000000000
     73        1          -0.000000000   -0.000000000   -0.000000000
     74        1          -0.000000000   -0.000000000   -0.000000000
     75        1          -0.000000000   -0.000000000   -0.000000000
     76        1          -0.000000000   -0.000000000   -0.000000000
     77       35           0.002052210    0.000868258   -0.002046673
     78        6           0.003738537    0.005202134   -0.005528935
     79        8           0.019336220    0.014735693   -0.017538812
     80        8          -0.000174893    0.017830869    0.012515095
 -------------------------------------------------------------------
 Cartesian Forces:  Max     0.024160135 RMS     0.005274579

 GradGradGradGradGradGradGradGradGradGradGradGradGradGradGradGradGradGrad
 Berny optimization.
 Search for a local minimum.
 Step number   1 out of a maximum of  250
 All quantities printed in internal units (Hartrees-Bohrs-Radians)
 Second derivative matrix not updated -- analytic derivatives used.
 ITU=  0
     Eigenvalues ---    0.00004   0.00006   0.00017   0.00025   0.00048
     Eigenvalues ---    0.00067   0.00085   0.00141   0.00222   0.00311
     Eigenvalues ---    0.00489   0.00589   0.00662   0.00797   0.01126
     Eigenvalues ---    0.01459   0.01561   0.01911   0.02720   0.03035
     Eigenvalues ---    0.03050   0.03715   0.03784   0.03982   0.04719
     Eigenvalues ---    0.04768   0.04965   0.05344   0.05839   0.06088
     Eigenvalues ---    0.06137   0.06304   0.07087   0.07566   0.07944
     Eigenvalues ---    0.08667   0.09267   0.09838   0.10307   0.11026
     Eigenvalues ---    0.11127   0.11362   0.11590   0.12395   0.13098
     Eigenvalues ---    0.14230   0.15901   0.16928   0.17621   0.19156
     Eigenvalues ---    0.19968   0.21433   0.22558   0.24795   0.26862
     Eigenvalues ---    0.30523   0.31012   0.32027   0.37077   0.38127
     Eigenvalues ---    0.43893   0.50576   0.55317   0.55500   0.56937
     Eigenvalues ---    0.57401   0.57671   0.61067   0.61296   0.67272
     Eigenvalues ---    0.70878   0.74901   0.79566   0.82317   0.85839
     Eigenvalues ---    0.88187   0.92987   0.97616   0.98679   1.38855
     Eigenvalues ---    1.44417
 RFO step:  Lambda=-1.55476785D-02 EMin= 3.95192836D-05
 Linear search not attempted -- first point.
 Variable       Old X    -DE/DX   Delta X   Delta X   Delta X     New X
                                 (Linear)    (Quad)   (Total)
    X1       -8.87130  -0.00000   0.00000   0.00000   0.00000  -8.87130
    Y1       -4.77894  -0.00000   0.00000   0.00000   0.00000  -4.77894
    Z1        4.39610  -0.00000   0.00000   0.00000   0.00000   4.39610
    X2       -8.69278  -0.00000   0.00000   0.00000   0.00000  -8.69278
    Y2       -1.76072  -0.00000   0.00000   0.00000   0.00000  -1.76072
    Z2        6.86228  -0.00000   0.00000   0.00000   0.00000   6.86228
    X3       -4.40814  -0.02416   0.00000  -0.02518  -0.02518  -4.43332
    Y3       -1.70331   0.01357   0.00000   0.04145   0.04145  -1.66186
    Z3        6.66102   0.01241   0.00000   0.03282   0.03282   6.69384
    X4       -7.12691  -0.00000   0.00000   0.00000   0.00000  -7.12691
    Y4       -2.41835  -0.00000   0.00000   0.00000   0.00000  -2.41835
    Z4        1.56513  -0.00000   0.00000   0.00000   0.00000   1.56513
    X5       -2.84456  -0.02212   0.00000  -0.03396  -0.03396  -2.87852
    Y5       -2.12711   0.00811   0.00000   0.01708   0.01708  -2.11003
    Z5        1.29867  -0.01021   0.00000  -0.02093  -0.02093   1.27774
    X6       -6.54077  -0.00000   0.00000   0.00000   0.00000  -6.54077
    Y6       -0.88593  -0.00000   0.00000   0.00000   0.00000  -0.88593
    Z6        7.45070  -0.00000   0.00000   0.00000   0.00000   7.45070
    X7       -5.10895  -0.00000   0.00000   0.00000   0.00000  -5.10895
    Y7       -1.59236  -0.00000   0.00000   0.00000   0.00000  -1.59236
    Z7        0.60706  -0.00000   0.00000   0.00000   0.00000   0.60706
    X8       -2.51809  -0.00753   0.00000  -0.07449  -0.07449  -2.59258
    Y8       -4.51204  -0.00001   0.00000   0.00250   0.00250  -4.50954
    Z8        4.25779  -0.00041   0.00000  -0.00606  -0.00606   4.25173
    X9       -4.29707  -0.02378   0.00000  -0.02458  -0.02458  -4.32166
    Y9       -7.49270  -0.01528   0.00000  -0.04031  -0.04031  -7.53301
    Z9        1.89592  -0.01118   0.00000  -0.03354  -0.03354   1.86238
   X10       -8.57814  -0.00000   0.00000   0.00000   0.00000  -8.57814
   Y10       -7.77728  -0.00000   0.00000   0.00000   0.00000  -7.77728
   Z10        1.91665  -0.00000   0.00000   0.00000   0.00000   1.91665
   X11       -2.48628  -0.01872   0.00000  -0.02930  -0.02930  -2.51558
   Y11       -6.92748  -0.00957   0.00000  -0.01638  -0.01638  -6.94386
   Z11        7.15785   0.01118   0.00000   0.01907   0.01907   7.17692
   X12       -6.79018  -0.00000   0.00000   0.00000   0.00000  -6.79018
   Y12       -6.98145  -0.00000   0.00000   0.00000   0.00000  -6.98145
   Z12        7.12537  -0.00000   0.00000   0.00000   0.00000   7.12537
   X13       -6.39654  -0.00000   0.00000   0.00000   0.00000  -6.39654
   Y13       -8.47500  -0.00000   0.00000   0.00000   0.00000  -8.47500
   Z13        1.21201  -0.00000   0.00000   0.00000   0.00000   1.21201
   X14       -4.66305  -0.00000   0.00000   0.00000   0.00000  -4.66305
   Y14       -7.63753  -0.00000   0.00000   0.00000   0.00000  -7.63753
   Z14        7.97226  -0.00000   0.00000   0.00000   0.00000   7.97226
   X15       -6.52977  -0.00000   0.00000   0.00000   0.00000  -6.52977
   Y15        0.72534  -0.00000   0.00000   0.00000   0.00000   0.72534
   Z15        8.77271  -0.00000   0.00000   0.00000   0.00000   8.77271
   X16       -5.27373  -0.00000   0.00000   0.00000   0.00000  -5.27373
   Y16       -0.27619  -0.00000   0.00000   0.00000   0.00000  -0.27619
   Z16       -0.99695  -0.00000   0.00000   0.00000   0.00000  -0.99695
   X17       -6.32498  -0.00000   0.00000   0.00000   0.00000  -6.32498
   Y17      -10.08270  -0.00000   0.00000   0.00000   0.00000 -10.08270
   Z17       -0.11244  -0.00000   0.00000   0.00000   0.00000  -0.11244
   X18       -4.63355  -0.00000   0.00000   0.00000   0.00000  -4.63355
   Y18       -8.95827  -0.00000   0.00000   0.00000   0.00000  -8.95827
   Z18        9.58071  -0.00000   0.00000   0.00000   0.00000   9.58071
   X19      -14.23690  -0.00000   0.00000   0.00000   0.00000 -14.23690
   Y19       -3.30988  -0.00000   0.00000   0.00000   0.00000  -3.30988
   Z19        5.94204  -0.00000   0.00000   0.00000   0.00000   5.94204
   X20      -16.86616  -0.00000   0.00000   0.00000   0.00000 -16.86616
   Y20       -3.36328  -0.00000   0.00000   0.00000   0.00000  -3.36328
   Z20        6.06550  -0.00000   0.00000   0.00000   0.00000   6.06550
   X21      -18.17065  -0.00000   0.00000   0.00000   0.00000 -18.17065
   Y21       -5.17382  -0.00000   0.00000   0.00000   0.00000  -5.17382
   Z21        4.65857  -0.00000   0.00000   0.00000   0.00000   4.65857
   X22      -16.79864  -0.00000   0.00000   0.00000   0.00000 -16.79864
   Y22       -6.86999  -0.00000   0.00000   0.00000   0.00000  -6.86999
   Z22        3.17539  -0.00000   0.00000   0.00000   0.00000   3.17539
   X23      -14.17165  -0.00000   0.00000   0.00000   0.00000 -14.17165
   Y23       -6.69889  -0.00000   0.00000   0.00000   0.00000  -6.69889
   Z23        3.14927  -0.00000   0.00000   0.00000   0.00000   3.14927
   X24      -12.91531  -0.00000   0.00000   0.00000   0.00000 -12.91531
   Y24       -4.94935  -0.00000   0.00000   0.00000   0.00000  -4.94935
   Z24        4.50899  -0.00000   0.00000   0.00000   0.00000   4.50899
   X25      -20.22042  -0.00000   0.00000   0.00000   0.00000 -20.22042
   Y25       -5.26143  -0.00000   0.00000   0.00000   0.00000  -5.26143
   Z25        4.71697  -0.00000   0.00000   0.00000   0.00000   4.71697
   X26      -13.12027  -0.00000   0.00000   0.00000   0.00000 -13.12027
   Y26       -1.94712  -0.00000   0.00000   0.00000   0.00000  -1.94712
   Z26        6.99214  -0.00000   0.00000   0.00000   0.00000   6.99214
   X27      -17.85649  -0.00000   0.00000   0.00000   0.00000 -17.85649
   Y27       -2.00886  -0.00000   0.00000   0.00000   0.00000  -2.00886
   Z27        7.24314  -0.00000   0.00000   0.00000   0.00000   7.24314
   X28      -17.73520  -0.00000   0.00000   0.00000   0.00000 -17.73520
   Y28       -8.30676  -0.00000   0.00000   0.00000   0.00000  -8.30676
   Z28        2.05265  -0.00000   0.00000   0.00000   0.00000   2.05265
   X29      -13.00437  -0.00000   0.00000   0.00000   0.00000 -13.00437
   Y29       -7.96424  -0.00000   0.00000   0.00000   0.00000  -7.96424
   Z29        2.03436  -0.00000   0.00000   0.00000   0.00000   2.03436
   X30        4.41298  -0.00043   0.00000  -0.01071  -0.01071   4.40227
   Y30       11.26618  -0.00093   0.00000  -0.02372  -0.02372  11.24246
   Z30        1.37803   0.00008   0.00000  -0.01003  -0.01003   1.36800
   X31        4.54022   0.00024   0.00000  -0.01253  -0.01253   4.52770
   Y31        8.74584   0.00061   0.00000  -0.02193  -0.02193   8.72392
   Z31        1.53939  -0.00118   0.00000  -0.00165  -0.00165   1.53775
   X32        3.99410  -0.00973   0.00000  -0.02664  -0.02664   3.96746
   Y32        6.96047  -0.01306   0.00000  -0.05045  -0.05045   6.91003
   Z32       -0.58510   0.00418   0.00000   0.01631   0.01631  -0.56880
   X33        2.24344   0.00980   0.00000   0.02837   0.02837   2.27181
   Y33        5.02069  -0.00135   0.00000  -0.01318  -0.01318   5.00751
   Z33        0.37016  -0.01291   0.00000  -0.01371  -0.01371   0.35645
   X34        2.34639   0.00203   0.00000   0.01170   0.01170   2.35808
   Y34        2.64451   0.01417   0.00000   0.02874   0.02874   2.67325
   Z34       -0.99656   0.00770   0.00000   0.02518   0.02518  -0.97138
   X35        4.26995  -0.00868   0.00000  -0.03927  -0.03927   4.23068
   Y35        0.82672  -0.01254   0.00000  -0.02994  -0.02994   0.79678
   Z35        0.13568   0.01132   0.00000   0.05255   0.05255   0.18823
   X36        4.76024  -0.01073   0.00000  -0.05632  -0.05632   4.70393
   Y36       -1.56255  -0.00835   0.00000  -0.02641  -0.02641  -1.58897
   Z36       -1.46411   0.01457   0.00000   0.05230   0.05230  -1.41181
   X37        3.18697  -0.00053   0.00000  -0.02374  -0.02374   3.16323
   Y37       -0.26413  -0.01676   0.00000  -0.00404  -0.00404  -0.26818
   Z37        2.56140  -0.01509   0.00000  -0.04243  -0.04243   2.51898
   X38        4.90050   0.00037   0.00000   0.00704   0.00704   4.90754
   Y38       12.48399  -0.00046   0.00000  -0.02718  -0.02718  12.45681
   Z38        2.95698   0.00069   0.00000  -0.01044  -0.01044   2.94654
   X39        3.81124  -0.00019   0.00000  -0.01509  -0.01509   3.79615
   Y39       12.20756  -0.00047   0.00000  -0.02639  -0.02639  12.18117
   Z39       -0.34808  -0.00058   0.00000  -0.01092  -0.01092  -0.35900
   X40        5.11362   0.00030   0.00000   0.00267   0.00267   5.11629
   Y40        7.84335   0.00058   0.00000   0.00219   0.00219   7.84553
   Z40        3.29786   0.00060   0.00000   0.00745   0.00745   3.30530
   X41        5.73122  -0.00089   0.00000  -0.00672  -0.00672   5.72451
   Y41        6.05461   0.00046   0.00000  -0.01535  -0.01535   6.03926
   Z41       -1.29219   0.00157   0.00000   0.02503   0.02503  -1.26715
   X42        3.11965  -0.00053   0.00000  -0.01417  -0.01417   3.10548
   Y42        7.94927  -0.00045   0.00000  -0.04004  -0.04004   7.90923
   Z42       -2.19149   0.00052   0.00000   0.01170   0.01170  -2.17979
   X43        2.88025  -0.00089   0.00000   0.02273   0.02273   2.90298
   Y43        2.94880   0.00062   0.00000   0.00586   0.00586   2.95466
   Z43       -2.97559   0.00031   0.00000   0.02332   0.02332  -2.95227
   X44        0.45657  -0.00013   0.00000   0.00104   0.00104   0.45761
   Y44        1.81411   0.00024   0.00000   0.03878   0.03878   1.85289
   Z44       -0.87025  -0.00022   0.00000  -0.00799  -0.00799  -0.87824
   X45        6.01441   0.00036   0.00000  -0.02328  -0.02328   5.99113
   Y45        1.78217   0.00009   0.00000  -0.03846  -0.03846   1.74370
   Z45        0.64187   0.00144   0.00000   0.03931   0.03931   0.68118
   X46        6.74516   0.00033   0.00000  -0.04665  -0.04665   6.69852
   Y46       -2.08184  -0.00104   0.00000  -0.01175  -0.01175  -2.09359
   Z46       -1.55932   0.00083   0.00000   0.03265   0.03265  -1.52667
   X47        3.97139  -0.00111   0.00000  -0.03626  -0.03626   3.93513
   Y47       -1.47113  -0.00035   0.00000  -0.00068  -0.00068  -1.47181
   Z47       -3.35770  -0.00058   0.00000   0.03840   0.03840  -3.31930
   X48       17.61915  -0.00000   0.00000   0.00000   0.00000  17.61915
   Y48       14.88838  -0.00000   0.00000   0.00000   0.00000  14.88838
   Z48      -17.79806  -0.00000   0.00000   0.00000   0.00000 -17.79806
   X49       16.58271  -0.00000   0.00000   0.00000   0.00000  16.58271
   Y49       16.37692  -0.00000   0.00000   0.00000   0.00000  16.37692
   Z49      -20.08303  -0.00000   0.00000   0.00000   0.00000 -20.08303
   X50       13.73912  -0.00000   0.00000   0.00000   0.00000  13.73912
   Y50       16.29489  -0.00000   0.00000   0.00000   0.00000  16.29489
   Z50      -20.54615  -0.00000   0.00000   0.00000   0.00000 -20.54615
   X51       17.59910  -0.00000   0.00000   0.00000   0.00000  17.59910
   Y51       15.62936  -0.00000   0.00000   0.00000   0.00000  15.62936
   Z51      -21.73414  -0.00000   0.00000   0.00000   0.00000 -21.73414
   X52       17.15535  -0.00000   0.00000   0.00000   0.00000  17.15535
   Y52       18.33393  -0.00000   0.00000   0.00000   0.00000  18.33393
   Z52      -19.74950  -0.00000   0.00000   0.00000   0.00000 -19.74950
   X53       13.42382  -0.00000   0.00000   0.00000   0.00000  13.42382
   Y53       17.30425  -0.00000   0.00000   0.00000   0.00000  17.30425
   Z53      -22.32412  -0.00000   0.00000   0.00000   0.00000 -22.32412
   X54       13.00838  -0.00000   0.00000   0.00000   0.00000  13.00838
   Y54       14.38781  -0.00000   0.00000   0.00000   0.00000  14.38781
   Z54      -20.81292  -0.00000   0.00000   0.00000   0.00000 -20.81292
   X55       12.62969  -0.00000   0.00000   0.00000   0.00000  12.62969
   Y55       17.25110  -0.00000   0.00000   0.00000   0.00000  17.25110
   Z55      -19.08670  -0.00000   0.00000   0.00000   0.00000 -19.08670
   X56       15.85821  -0.00000   0.00000   0.00000   0.00000  15.85821
   Y56       15.21096  -0.00000   0.00000   0.00000   0.00000  15.21096
   Z56      -15.55558  -0.00000   0.00000   0.00000   0.00000 -15.55558
   X57       16.70475  -0.00000   0.00000   0.00000   0.00000  16.70475
   Y57       13.99330  -0.00000   0.00000   0.00000   0.00000  13.99330
   Z57      -13.08109  -0.00000   0.00000   0.00000   0.00000 -13.08109
   X58       14.03717  -0.00000   0.00000   0.00000   0.00000  14.03717
   Y58       14.43907  -0.00000   0.00000   0.00000   0.00000  14.43907
   Z58      -16.12249  -0.00000   0.00000   0.00000   0.00000 -16.12249
   X59       15.62049  -0.00000   0.00000   0.00000   0.00000  15.62049
   Y59       17.25043  -0.00000   0.00000   0.00000   0.00000  17.25043
   Z59      -15.31367  -0.00000   0.00000   0.00000   0.00000 -15.31367
   X60       15.23260  -0.00000   0.00000   0.00000   0.00000  15.23260
   Y60       14.35284  -0.00000   0.00000   0.00000   0.00000  14.35284
   Z60      -11.67320  -0.00000   0.00000   0.00000   0.00000 -11.67320
   X61       16.91441  -0.00000   0.00000   0.00000   0.00000  16.91441
   Y61       11.94506  -0.00000   0.00000   0.00000   0.00000  11.94506
   Z61      -13.23950  -0.00000   0.00000   0.00000   0.00000 -13.23950
   X62       18.46306  -0.00000   0.00000   0.00000   0.00000  18.46306
   Y62       14.78657  -0.00000   0.00000   0.00000   0.00000  14.78657
   Z62      -12.34523  -0.00000   0.00000   0.00000   0.00000 -12.34523
   X63       20.19810  -0.00000   0.00000   0.00000   0.00000  20.19810
   Y63       16.03109  -0.00000   0.00000   0.00000   0.00000  16.03109
   Z63      -17.11126  -0.00000   0.00000   0.00000   0.00000 -17.11126
   X64       22.02451  -0.00000   0.00000   0.00000   0.00000  22.02451
   Y64       16.46756  -0.00000   0.00000   0.00000   0.00000  16.46756
   Z64      -19.30268  -0.00000   0.00000   0.00000   0.00000 -19.30268
   X65       21.03030  -0.00000   0.00000   0.00000   0.00000  21.03030
   Y65       14.74201  -0.00000   0.00000   0.00000   0.00000  14.74201
   Z65      -15.73454  -0.00000   0.00000   0.00000   0.00000 -15.73454
   X66       19.77883  -0.00000   0.00000   0.00000   0.00000  19.77883
   Y66       17.81194  -0.00000   0.00000   0.00000   0.00000  17.81194
   Z66      -16.14593  -0.00000   0.00000   0.00000   0.00000 -16.14593
   X67       23.88938  -0.00000   0.00000   0.00000   0.00000  23.88938
   Y67       16.83268  -0.00000   0.00000   0.00000   0.00000  16.83268
   Z67      -18.48330  -0.00000   0.00000   0.00000   0.00000 -18.48330
   X68       22.16798  -0.00000   0.00000   0.00000   0.00000  22.16798
   Y68       14.86127  -0.00000   0.00000   0.00000   0.00000  14.86127
   Z68      -20.59639  -0.00000   0.00000   0.00000   0.00000 -20.59639
   X69       21.50384  -0.00000   0.00000   0.00000   0.00000  21.50384
   Y69       18.10948  -0.00000   0.00000   0.00000   0.00000  18.10948
   Z69      -20.43848  -0.00000   0.00000   0.00000   0.00000 -20.43848
   X70       18.06517  -0.00000   0.00000   0.00000   0.00000  18.06517
   Y70       12.08670  -0.00000   0.00000   0.00000   0.00000  12.08670
   Z70      -18.43535  -0.00000   0.00000   0.00000   0.00000 -18.43535
   X71       15.74383  -0.00000   0.00000   0.00000   0.00000  15.74383
   Y71       10.47656  -0.00000   0.00000   0.00000   0.00000  10.47656
   Z71      -18.97704  -0.00000   0.00000   0.00000   0.00000 -18.97704
   X72       19.12351  -0.00000   0.00000   0.00000   0.00000  19.12351
   Y72       11.33311  -0.00000   0.00000   0.00000   0.00000  11.33311
   Z72      -16.83250  -0.00000   0.00000   0.00000   0.00000 -16.83250
   X73       19.24958  -0.00000   0.00000   0.00000   0.00000  19.24958
   Y73       12.07848  -0.00000   0.00000   0.00000   0.00000  12.07848
   Z73      -20.13741  -0.00000   0.00000   0.00000   0.00000 -20.13741
   X74       16.41096  -0.00000   0.00000   0.00000   0.00000  16.41096
   Y74        8.52328  -0.00000   0.00000   0.00000   0.00000   8.52328
   Z74      -19.11268  -0.00000   0.00000   0.00000   0.00000 -19.11268
   X75       14.29215  -0.00000   0.00000   0.00000   0.00000  14.29215
[...]
 .,0.,0.,0.,0.,0.,0.,0.,0.,0.,0.,0.,0.,0.,0.,0.,0.,0.,0.,0.,0.,0.,0.,0.
 ,0.,0.,0.,0.,0.,0.,0.,0.,0.,0.,0.,0.,0.,0.,0.,0.,0.,0.,0.,0.,0.,0.,0.,
 0.,0.,0.,0.,0.,0.,0.,0.,0.,0.,0.,0.,0.,0.,0.,0.,0.,0.,0.,0.,0.,0.,0.,0
 .,0.,0.,0.,0.,0.,0.,0.,0.,0.,0.,0.,0.,0.,0.,0.,0.,0.,0.,0.,0.,0.,0.,0.
 ,0.,0.,0.,0.,0.,0.,0.,0.,0.,0.,0.,0.,0.,0.,0.,0.,0.,0.,0.,0.,0.,0.,0.,
 0.,0.,0.,0.,0.,0.,0.,0.,0.,0.,0.,0.,0.,0.,0.,0.,0.,0.,0.,0.,0.,0.,0.,0
 .,0.,0.,0.,0.,0.,0.,0.,0.,0.,0.,0.,0.,0.,0.,0.,0.,0.,0.,0.,0.,0.,0.,0.
 ,0.,0.,0.,0.,0.,0.,0.,0.,0.,0.,0.,0.,0.,0.,0.,0.,0.,0.,0.,0.,0.,0.,0.,
 0.,0.,0.,0.,0.,0.,0.,0.,0.,0.,0.,0.,0.,0.,0.,0.,0.,0.,0.,0.,0.,0.,0.,0
 .,0.,0.,0.,0.,0.,0.,0.,0.,0.,0.,0.,0.,0.,0.,0.,0.,0.,0.,0.,0.,0.,0.,0.
 ,0.,0.,0.,0.,0.,0.,0.,0.,0.,0.,0.,0.,0.,0.,0.,0.,0.,0.,0.,0.,0.,0.,0.,
 0.,0.,0.,0.,0.,0.,0.,0.,0.,0.,0.,0.,0.,0.,0.,0.,0.,0.,0.,0.,0.,0.,0.,0
 .,0.,0.,0.,0.,0.,0.,0.,0.,0.,0.,0.,0.,0.,0.,0.,0.,0.,0.,0.,0.,0.,0.,0.
 ,0.,0.,0.,0.,0.,0.,0.,0.,0.,0.,0.,0.,0.,0.,0.,0.,0.,0.,0.,0.,0.,0.,0.,
 0.,0.,0.,0.,0.,0.,0.,0.,0.,0.,0.,0.,0.,0.,0.,0.,0.,0.,0.,0.,0.,0.,0.,0
 .,0.,0.,0.,0.,0.,0.,0.,0.,0.,0.,0.,0.,0.,0.,0.,0.,0.,0.,0.,0.,0.,0.,0.
 ,0.,0.,0.,0.,0.,0.,0.,0.,0.,0.,0.,0.,0.,0.,0.,0.,0.,0.,0.,0.,0.,0.,0.,
 0.,0.,0.,0.,0.,0.,0.,0.,0.,0.,0.,0.,0.,0.,0.,0.,0.,0.,0.,0.,0.,0.,0.,0
 .,0.,0.,0.,0.,0.,0.,0.,0.,0.,0.,0.,0.,0.,0.,0.,0.,0.,0.,0.,0.,0.,0.,0.
 ,0.,0.,0.,0.,0.,0.,0.,0.,0.,0.,0.,0.,0.,0.,0.,0.,0.,0.,0.,0.,0.,0.,0.,
 0.,0.,0.,0.,0.,0.,0.,0.,0.,0.,0.,0.,0.,0.,0.,0.,0.,0.,0.,0.,0.,0.,0.,0
 .,0.,0.,0.,0.,0.,0.,0.,0.,0.,0.,0.,0.,0.,0.,0.,0.,0.,0.,0.,0.,0.,0.,0.
 ,0.,0.,0.,0.,0.,0.,0.,0.,0.,0.,0.,0.,0.,0.,0.,0.,0.,0.,0.,0.,0.,0.,0.,
 0.,0.,0.,0.,0.,0.,0.,0.,0.,0.,0.,0.,0.,0.,0.,0.,0.,0.,0.,0.,0.,0.,0.,0
 .,0.,0.,0.,0.,0.,0.,0.,0.,0.,0.,0.,0.,0.,0.,0.,0.,0.,0.,0.,0.,0.,0.,0.
 ,0.,0.,0.,0.,0.,0.,0.,0.,0.,0.,0.,0.,0.,0.,0.,0.,0.,0.,0.,0.,0.,0.,0.,
 0.,0.,0.,0.,0.,0.,0.,0.,0.,0.,0.,0.,0.,0.,0.,0.,0.,0.,0.,0.,0.,0.,0.,0
 .,0.,0.,0.,0.,0.,0.,0.,0.,0.,0.,0.,0.,0.,0.,0.,0.,0.,0.,0.,0.,0.,0.,0.
 ,0.,0.,0.,0.,0.,0.,0.,0.,0.,0.,0.,0.,-0.00028305,0.00005906,0.00022547
 ,0.,0.,0.,-0.00061235,-0.00008244,0.00002884,0.,0.,0.,0.,0.,0.,0.00066
 097,0.00039861,-0.00038653,-0.00025057,-0.00024808,-0.00004099,0.,0.,0
 .,-0.00019968,-0.00018062,0.00019966,0.,0.,0.,0.,0.,0.,0.,0.,0.,0.,0.,
 0.,0.,0.,0.,0.,0.,0.,0.,0.,0.,0.,0.,0.,0.,0.,0.,0.,0.,0.,0.,0.,0.,0.,0
 .,0.,0.,0.,0.,0.,0.,0.,0.,0.,0.,0.,0.,0.,0.,0.,0.,0.,0.,0.,0.00023588,
 0.00013337,0.00013530,0.00015838,-0.00027573,-0.00003519,-0.00164336,-
 0.00000678,-0.00026982,0.00138060,0.00139761,0.00218166,-0.00229538,-0
 .00009923,-0.00126765,-0.00036317,0.00105853,-0.00116896,0.00042554,0.
 00049361,-0.00098165,-0.00039056,-0.00115673,0.00085711,-0.00003906,0.
 00009308,0.00003012,-0.00009899,0.00003088,-0.00004728,-0.00009518,0.0
 0004844,0.00008520,-0.00000183,-0.00006686,0.00020797,0.00013176,-0.00
 013685,0.00013411,-0.00062396,-0.00095205,0.00130499,-0.00025996,-0.00
 014084,0.00078500,-0.00009167,-0.00009450,0.00019469,-0.00122869,-0.00
 002073,0.00022305,0.00073107,0.00002061,0.00000568,0.,0.,0.,0.,0.,0.,0
 .,0.,0.,0.,0.,0.,0.,0.,0.,0.,0.,0.,0.,0.,0.,0.,0.,0.,0.,0.,0.,0.,0.,0.
 ,0.,0.,0.,0.,0.,0.,0.,0.,0.,0.,0.,0.,0.,0.,0.,0.,0.,0.,0.,0.,0.,0.,0.,
 0.,0.,0.,0.,0.,0.,0.,0.,0.,0.,0.,0.,0.,0.,0.,0.,0.,0.,0.,0.,0.,0.,0.,0
 .,0.,0.,0.,0.,0.,0.,0.,0.,0.,0.,0.00491796,0.,0.,0.,0.,0.,0.,-0.000194
 43,0.00015075,0.00013840,0.,0.,0.,-0.00050544,0.00020546,-0.00008486,0
 .,0.,0.,0.,0.,0.,0.00068872,-0.00000256,-0.00024612,-0.00025814,-0.000
 09222,-0.00001060,0.,0.,0.,-0.00023825,-0.00007979,0.00015896,0.,0.,0.
 ,0.,0.,0.,0.,0.,0.,0.,0.,0.,0.,0.,0.,0.,0.,0.,0.,0.,0.,0.,0.,0.,0.,0.,
 0.,0.,0.,0.,0.,0.,0.,0.,0.,0.,0.,0.,0.,0.,0.,0.,0.,0.,0.,0.,0.,0.,0.,0
 .,0.,0.,0.,0.,0.00002217,-0.00017115,0.00007345,0.00043446,0.00040065,
 -0.00012920,-0.00095523,-0.00184737,0.00053711,0.00112588,0.00174471,-
 0.00016934,0.00022371,-0.00105810,-0.00000848,0.00041206,-0.00106199,-
 0.00066749,0.00125405,-0.00088566,-0.00082711,-0.00040663,0.00100952,0
 .00064639,-0.00004697,-0.00001017,-0.00009618,-0.00002263,0.00013219,-
 0.00001531,-0.00003337,-0.00009873,-0.00027469,0.00010183,-0.00045113,
 0.00030694,-0.00046484,0.00088069,-0.00045733,-0.00037890,-0.00041824,
 0.00018448,0.00011706,0.00026685,-0.00014469,0.00006393,-0.00019405,-0
 .00031619,-0.00043953,0.00083490,-0.00007954,0.00017051,-0.00009972,-0
 .00008655,0.,0.,0.,0.,0.,0.,0.,0.,0.,0.,0.,0.,0.,0.,0.,0.,0.,0.,0.,0.,
 0.,0.,0.,0.,0.,0.,0.,0.,0.,0.,0.,0.,0.,0.,0.,0.,0.,0.,0.,0.,0.,0.,0.,0
 .,0.,0.,0.,0.,0.,0.,0.,0.,0.,0.,0.,0.,0.,0.,0.,0.,0.,0.,0.,0.,0.,0.,0.
 ,0.,0.,0.,0.,0.,0.,0.,0.,0.,0.,0.,0.,0.,0.,0.,0.,0.,0.,0.,0.,0.0004646
 3,0.00217690,0.,0.,0.,0.,0.,0.,0.00034905,-0.00004936,-0.00014092,0.,0
 .,0.,0.00071699,-0.00004258,0.00026072,0.,0.,0.,0.,0.,0.,-0.00089260,-
 0.00034506,0.00010707,0.00027396,0.00022540,0.00013799,0.,0.,0.,0.0003
 0979,0.00018969,-0.00015720,0.,0.,0.,0.,0.,0.,0.,0.,0.,0.,0.,0.,0.,0.,
 0.,0.,0.,0.,0.,0.,0.,0.,0.,0.,0.,0.,0.,0.,0.,0.,0.,0.,0.,0.,0.,0.,0.,0
 .,0.,0.,0.,0.,0.,0.,0.,0.,0.,0.,0.,0.,0.,0.,0.,0.,-0.00009247,-0.00033
 342,-0.00032498,0.00078562,0.00024661,0.00044799,-0.00097581,-0.000068
 26,-0.00117523,0.00069571,-0.00020727,-0.00052161,0.00189184,-0.000344
 79,0.00008548,-0.00162211,-0.00080702,0.00082384,-0.00077078,0.0000314
 7,-0.00024634,0.00150397,0.00190333,-0.00047519,-0.00014294,-0.0001120
 7,-0.00005264,0.00003882,0.00001607,0.00005476,-0.00002477,-0.00005220
 ,-0.00015712,0.00046786,-0.00060280,0.00069378,-0.00026047,0.00025130,
 -0.00025230,0.00036062,0.00060947,-0.00190869,0.00051366,0.00011645,-0
 .00078748,0.00032189,-0.00007372,0.00075706,0.00020324,-0.00029437,-0.
 00089440,0.00033613,-0.00004491,-0.00003794,0.,0.,0.,0.,0.,0.,0.,0.,0.
 ,0.,0.,0.,0.,0.,0.,0.,0.,0.,0.,0.,0.,0.,0.,0.,0.,0.,0.,0.,0.,0.,0.,0.,
 0.,0.,0.,0.,0.,0.,0.,0.,0.,0.,0.,0.,0.,0.,0.,0.,0.,0.,0.,0.,0.,0.,0.,0
 .,0.,0.,0.,0.,0.,0.,0.,0.,0.,0.,0.,0.,0.,0.,0.,0.,0.,0.,0.,0.,0.,0.,0.
 ,0.,0.,0.,0.,0.,0.,0.,0.,-0.00390211,0.00023821,0.00475588,0.,0.,0.,0.
 ,0.,0.,0.00304908,-0.00174567,-0.00190192,0.,0.,0.,0.00646995,-0.00407
 598,0.00549444,0.,0.,0.,0.,0.,0.,-0.02000802,-0.00715544,0.00692705,0.
 00272575,0.00214372,0.00135173,0.,0.,0.,0.00306098,0.00186123,-0.00213
 186,0.,0.,0.,0.,0.,0.,0.,0.,0.,0.,0.,0.,0.,0.,0.,0.,0.,0.,0.,0.,0.,0.,
 0.,0.,0.,0.,0.,0.,0.,0.,0.,0.,0.,0.,0.,0.,0.,0.,0.,0.,0.,0.,0.,0.,0.,0
 .,0.,0.,0.,0.,0.,0.,0.,0.,0.00005069,0.00026420,0.00016749,0.00005737,
 -0.00017086,-0.00030289,-0.00150169,-0.00115970,0.00013039,0.00064934,
 0.00286171,0.00086432,0.00208167,-0.00168415,-0.00289251,-0.01918512,-
 0.02277186,0.00951305,-0.01548332,-0.00882637,0.02039849,-0.08276238,-
 0.04349451,0.00807554,0.00004035,0.00012675,0.00007721,0.00001538,-0.0
 0001465,-0.00003668,-0.00003044,-0.00004503,0.00001309,0.00004853,0.00
 003040,0.00001403,0.00015353,0.00016170,-0.00014068,-0.00034860,0.0013
 1118,0.00005952,0.00010750,0.00026169,-0.00003022,-0.00121726,-0.00185
 438,0.00331493,-0.00075178,-0.00398224,0.00196363,0.00153931,0.0039446
 8,-0.00225139,0.,0.,0.,0.,0.,0.,0.,0.,0.,0.,0.,0.,0.,0.,0.,0.,0.,0.,0.
 ,0.,0.,0.,0.,0.,0.,0.,0.,0.,0.,0.,0.,0.,0.,0.,0.,0.,0.,0.,0.,0.,0.,0.,
 0.,0.,0.,0.,0.,0.,0.,0.,0.,0.,0.,0.,0.,0.,0.,0.,0.,0.,0.,0.,0.,0.,0.,0
 .,0.,0.,0.,0.,0.,0.,0.,0.,0.,0.,0.,0.,0.,0.,0.,0.,0.,0.,0.,0.,0.,0.000
 93372,0.00063879,-0.00102752,0.41900757,0.,0.,0.,0.,0.,0.,0.00273986,-
 0.00298095,-0.00130115,0.,0.,0.,0.00607191,-0.00678359,0.00403476,0.,0
 .,0.,0.,0.,0.,-0.02567030,-0.00033967,0.00353227,0.00433499,0.00176977
 ,0.00158759,0.,0.,0.,0.00582879,0.00290582,-0.00366998,0.,0.,0.,0.,0.,
 0.,0.,0.,0.,0.,0.,0.,0.,0.,0.,0.,0.,0.,0.,0.,0.,0.,0.,0.,0.,0.,0.,0.,0
 .,0.,0.,0.,0.,0.,0.,0.,0.,0.,0.,0.,0.,0.,0.,0.,0.,0.,0.,0.,0.,0.,0.,0.
 ,0.,0.,0.00020373,0.00050223,0.00032112,0.00023667,-0.00033802,-0.0005
 0200,-0.00310734,-0.00273430,0.00049414,0.00279896,0.00416670,0.000195
 10,0.00071608,-0.00434868,-0.00668345,-0.03164072,-0.04139457,0.050945
 02,0.00089492,0.02123740,0.02091034,-0.05334012,-0.25402301,-0.0421128
 2,0.00004570,0.00026066,0.00014279,-0.00001845,0.00003318,-0.00009947,
 -0.00017346,-0.00013071,-0.00008074,0.00001967,0.00011275,0.00022929,0
 .00023323,0.00059687,-0.00034318,-0.00093204,0.00378298,0.00013768,0.0
 0029222,-0.00052123,0.00127810,0.00401357,0.00165975,-0.00720731,-0.00
 199999,-0.00716437,0.00080483,-0.00277609,-0.00702143,0.00254289,0.,0.
 ,0.,0.,0.,0.,0.,0.,0.,0.,0.,0.,0.,0.,0.,0.,0.,0.,0.,0.,0.,0.,0.,0.,0.,
 0.,0.,0.,0.,0.,0.,0.,0.,0.,0.,0.,0.,0.,0.,0.,0.,0.,0.,0.,0.,0.,0.,0.,0
 .,0.,0.,0.,0.,0.,0.,0.,0.,0.,0.,0.,0.,0.,0.,0.,0.,0.,0.,0.,0.,0.,0.,0.
 ,0.,0.,0.,0.,0.,0.,0.,0.,0.,0.,0.,0.,0.,0.,0.,0.00089277,-0.00106937,-
 0.00222115,0.23972941,0.71328867,0.,0.,0.,0.,0.,0.,-0.00480689,0.00208
 845,0.00131211,0.,0.,0.,-0.00490220,0.00285793,-0.00784031,0.,0.,0.,0.
 ,0.,0.,0.02715467,0.00424301,0.00105726,-0.00269590,-0.00165669,-0.002
 63624,0.,0.,0.,-0.00628898,-0.00345696,0.00361332,0.,0.,0.,0.,0.,0.,0.
 ,0.,0.,0.,0.,0.,0.,0.,0.,0.,0.,0.,0.,0.,0.,0.,0.,0.,0.,0.,0.,0.,0.,0.,
 0.,0.,0.,0.,0.,0.,0.,0.,0.,0.,0.,0.,0.,0.,0.,0.,0.,0.,0.,0.,0.,0.,0.,0
 .,-0.00001715,-0.00018973,-0.00019015,-0.00003907,0.00002907,0.0004530
 9,0.00088700,0.00038954,-0.00018185,-0.00011831,-0.00445607,-0.0014759
 2,0.00297218,0.00459479,-0.00950471,0.00288547,0.02159363,0.01920046,0
 .02989279,0.04191229,-0.04834172,-0.00324050,-0.07457446,-0.12582464,-
 0.00003602,-0.00009552,-0.00005772,-0.00001298,0.00006672,-0.00001884,
 -0.00001005,-0.00002020,-0.00012608,-0.00009570,0.00004951,0.00019204,
 -0.00020085,0.00002845,-0.00000945,-0.00111081,0.00309932,-0.00034782,
 -0.00019305,-0.00049029,0.00085359,0.00203661,0.00093573,-0.00447953,-
 0.00231445,-0.00414273,-0.00070099,0.00004482,-0.00564671,0.00150719,0
 .,0.,0.,0.,0.,0.,0.,0.,0.,0.,0.,0.,0.,0.,0.,0.,0.,0.,0.,0.,0.,0.,0.,0.
 ,0.,0.,0.,0.,0.,0.,0.,0.,0.,0.,0.,0.,0.,0.,0.,0.,0.,0.,0.,0.,0.,0.,0.,
 0.,0.,0.,0.,0.,0.,0.,0.,0.,0.,0.,0.,0.,0.,0.,0.,0.,0.,0.,0.,0.,0.,0.,0
 .,0.,0.,0.,0.,0.,0.,0.,0.,0.,0.,0.,0.,0.,0.,0.,0.,-0.00171393,-0.00277
 957,0.00061155,-0.26015680,-0.14429503,0.73280767,0.,0.,0.,0.,0.,0.,-0
 .00395747,0.00235536,0.00224227,0.,0.,0.,-0.01560889,0.00779770,-0.010
 49166,0.,0.,0.,0.,0.,0.,-0.01775694,-0.00096303,0.00008288,-0.00334263
 ,-0.00250489,-0.00178132,0.,0.,0.,-0.00652487,-0.00430216,0.00484745,0
 .,0.,0.,0.,0.,0.,0.,0.,0.,0.,0.,0.,0.,0.,0.,0.,0.,0.,0.,0.,0.,0.,0.,0.
 ,0.,0.,0.,0.,0.,0.,0.,0.,0.,0.,0.,0.,0.,0.,0.,0.,0.,0.,0.,0.,0.,0.,0.,
 0.,0.,0.,0.,0.,0.,0.,-0.00003792,-0.00022865,-0.00014793,-0.00004812,0
 .00014577,0.00026022,0.00115987,0.00093136,-0.00018746,-0.00063447,-0.
 00224205,-0.00103136,-0.00293074,0.00184237,0.00370573,0.00985604,-0.0
 0098390,-0.00624012,0.00759963,0.00610296,0.00083418,-0.00725445,-0.04
 412498,0.01840326,-0.00003903,-0.00010462,-0.00006540,-0.00001319,0.00
 001214,0.00003226,0.00002341,0.00003697,-0.00001599,-0.00000142,-0.000
 01108,0.00000342,-0.00009270,-0.00011832,0.00010786,0.00064612,-0.0013
 5314,-0.00021048,-0.00004597,0.00006201,-0.00015801,-0.00032317,0.0000
 0773,0.00007114,0.00005197,-0.00009628,0.00017497,-0.00133449,-0.00238
 652,0.00140173,0.,0.,0.,0.,0.,0.,0.,0.,0.,0.,0.,0.,0.,0.,0.,0.,0.,0.,0
 .,0.,0.,0.,0.,0.,0.,0.,0.,0.,0.,0.,0.,0.,0.,0.,0.,0.,0.,0.,0.,0.,0.,0.
 ,0.,0.,0.,0.,0.,0.,0.,0.,0.,0.,0.,0.,0.,0.,0.,0.,0.,0.,0.,0.,0.,0.,0.,
 0.,0.,0.,0.,0.,0.,0.,0.,0.,0.,0.,0.,0.,0.,0.,0.,0.,0.,0.,0.,0.,0.,-0.0
 0089760,-0.00071153,0.00097448,-0.21034971,-0.15114890,0.16558680,0.24
 885148,0.,0.,0.,0.,0.,0.,-0.00091673,0.00154352,0.00030502,0.,0.,0.,0.
 00031926,0.00298474,-0.00068813,0.,0.,0.,0.,0.,0.,0.00655301,-0.004343
 76,0.00003142,-0.00332920,-0.00111017,-0.00150581,0.,0.,0.,-0.00629081
 ,-0.00256781,0.00383720,0.,0.,0.,0.,0.,0.,0.,0.,0.,0.,0.,0.,0.,0.,0.,0
 .,0.,0.,0.,0.,0.,0.,0.,0.,0.,0.,0.,0.,0.,0.,0.,0.,0.,0.,0.,0.,0.,0.,0.
 ,0.,0.,0.,0.,0.,0.,0.,0.,0.,0.,0.,0.,0.,0.,0.,-0.00008465,-0.00024190,
 -0.00016852,-0.00009173,0.00015110,0.00029251,0.00136028,0.00115372,-0
 .00020953,-0.00104703,-0.00219064,-0.00075476,-0.00208830,0.00218684,0
 .00368249,0.00418276,0.00073482,-0.01658680,0.00001508,0.00169954,-0.0
 0189920,-0.04612743,-0.06583339,0.04138613,-0.00002832,-0.00012320,-0.
 00007174,0.00000649,0.00000489,0.00003704,0.00006565,0.00003679,-0.000
 00840,0.00000125,-0.00002564,-0.00002387,-0.00010382,-0.00019082,0.000
 12089,0.00070562,-0.00151299,-0.00013904,0.00003403,0.00002636,-0.0003
 6365,-0.00131673,-0.00117136,0.00309773,0.00021814,0.00016401,0.000275
 28,0.00009704,-0.00006151,0.00018590,0.,0.,0.,0.,0.,0.,0.,0.,0.,0.,0.,
 0.,0.,0.,0.,0.,0.,0.,0.,0.,0.,0.,0.,0.,0.,0.,0.,0.,0.,0.,0.,0.,0.,0.,0
 .,0.,0.,0.,0.,0.,0.,0.,0.,0.,0.,0.,0.,0.,0.,0.,0.,0.,0.,0.,0.,0.,0.,0.
 ,0.,0.,0.,0.,0.,0.,0.,0.,0.,0.,0.,0.,0.,0.,0.,0.,0.,0.,0.,0.,0.,0.,0.,
 0.,0.,0.,0.,0.,0.,-0.00090080,-0.00031996,0.00116999,-0.15679022,-0.28
 228444,0.20471011,0.20621508,0.32923396,0.,0.,0.,0.,0.,0.,0.00351849,-
 0.00182674,-0.00070382,0.,0.,0.,-0.00200769,-0.00005687,0.00232657,0.,
 0.,0.,0.,0.,0.,-0.00848847,-0.00027435,-0.00445816,0.00117130,0.000574
 28,0.00153626,0.,0.,0.,0.00680826,0.00367300,-0.00338820,0.,0.,0.,0.,0
 .,0.,0.,0.,0.,0.,0.,0.,0.,0.,0.,0.,0.,0.,0.,0.,0.,0.,0.,0.,0.,0.,0.,0.
 ,0.,0.,0.,0.,0.,0.,0.,0.,0.,0.,0.,0.,0.,0.,0.,0.,0.,0.,0.,0.,0.,0.,0.,
 0.,0.,0.,0.00004871,0.00019968,0.00016936,0.00004717,-0.00008823,-0.00
 034542,-0.00096217,-0.00075911,0.00016639,0.00060510,0.00241926,0.0010
 9113,0.00084544,-0.00257375,-0.00041987,-0.00098252,-0.00191635,0.0032
 5812,-0.00096419,-0.01510162,0.00146899,0.00850248,0.02647965,0.014894
 67,0.00003217,0.00010125,0.00005823,0.00000021,-0.00003075,-0.00000944
 ,-0.00002335,-0.00000628,0.00006084,0.00001461,0.00001495,-0.00006500,
 0.00011009,0.00007856,-0.00005791,-0.00013495,0.00015346,0.00012952,0.
 00002836,0.00007057,0.00000144,0.00026615,0.00051005,-0.00072513,0.000
 29668,0.00304942,-0.00102603,0.00059189,0.00211375,-0.00092826,0.,0.,0
 .,0.,0.,0.,0.,0.,0.,0.,0.,0.,0.,0.,0.,0.,0.,0.,0.,0.,0.,0.,0.,0.,0.,0.
 ,0.,0.,0.,0.,0.,0.,0.,0.,0.,0.,0.,0.,0.,0.,0.,0.,0.,0.,0.,0.,0.,0.,0.,
 0.,0.,0.,0.,0.,0.,0.,0.,0.,0.,0.,0.,0.,0.,0.,0.,0.,0.,0.,0.,0.,0.,0.,0
 .,0.,0.,0.,0.,0.,0.,0.,0.,0.,0.,0.,0.,0.,0.,0.00116809,0.00121049,-0.0
 0092950,0.17115076,0.20389640,-0.31819942,-0.22131286,-0.25431248,0.37
 363004,0.,0.,0.,0.,0.,0.,-0.00105634,0.00060929,0.00058327,0.,0.,0.,-0
 .00345268,0.00165391,-0.00111845,0.,0.,0.,0.,0.,0.,0.00557292,0.000829
 80,-0.00079571,-0.00100428,-0.00077137,-0.00040977,0.,0.,0.,-0.0014080
 6,-0.00085149,0.00087255,0.,0.,0.,0.,0.,0.,0.,0.,0.,0.,0.,0.,0.,0.,0.,
 0.,0.,0.,0.,0.,0.,0.,0.,0.,0.,0.,0.,0.,0.,0.,0.,0.,0.,0.,0.,0.,0.,0.,0
 .,0.,0.,0.,0.,0.,0.,0.,0.,0.,0.,0.,0.,0.,0.,0.,0.00000213,-0.00008456,
 -0.00007833,0.00001798,0.00003842,0.00017040,0.00038462,0.00019637,-0.
 00003000,0.00020199,-0.00185966,-0.00049772,-0.00109097,0.00209780,-0.
 00217399,-0.00485179,-0.01653643,0.00886101,-0.07196223,-0.02880131,0.
 01053245,0.02483807,0.00130585,0.00630907,-0.00002223,-0.00003742,-0.0
 0002689,-0.00001038,0.00002724,-0.00000098,-0.00000873,-0.00001031,-0.
 00005312,-0.00002039,0.00006745,0.00008683,-0.00008888,0.00001644,-0.0
 0000126,-0.00028838,0.00047460,0.00021999,0.00004915,-0.00045662,0.000
 12584,0.00007334,0.00042604,-0.00181027,-0.00268157,-0.02851823,0.0130
 0105,0.01297880,0.01000460,-0.00461742,0.,0.,0.,0.,0.,0.,0.,0.,0.,0.,0
 .,0.,0.,0.,0.,0.,0.,0.,0.,0.,0.,0.,0.,0.,0.,0.,0.,0.,0.,0.,0.,0.,0.,0.
 ,0.,0.,0.,0.,0.,0.,0.,0.,0.,0.,0.,0.,0.,0.,0.,0.,0.,0.,0.,0.,0.,0.,0.,
 0.,0.,0.,0.,0.,0.,0.,0.,0.,0.,0.,0.,0.,0.,0.,0.,0.,0.,0.,0.,0.,0.,0.,0
 .,0.,0.,0.,0.,0.,0.,-0.00105151,-0.00185110,0.00108562,-0.08056022,0.0
 0877486,0.04962046,-0.00639355,-0.00534886,0.04448980,0.12857076,0.,0.
 ,0.,0.,0.,0.,-0.00037794,0.00050243,0.00025989,0.,0.,0.,-0.00107223,0.
 00099902,-0.00023515,0.,0.,0.,0.,0.,0.,0.00283589,-0.00025715,-0.00017
 730,-0.00088181,-0.00026108,-0.00007232,0.,0.,0.,-0.00086599,-0.000336
 30,0.00053236,0.,0.,0.,0.,0.,0.,0.,0.,0.,0.,0.,0.,0.,0.,0.,0.,0.,0.,0.
 ,0.,0.,0.,0.,0.,0.,0.,0.,0.,0.,0.,0.,0.,0.,0.,0.,0.,0.,0.,0.,0.,0.,0.,
 0.,0.,0.,0.,0.,0.,0.,0.,0.,0.,0.,0.,-0.00008720,-0.00016221,-0.0001457
 6,-0.00016533,0.00007655,0.00024258,0.00187233,0.00105994,-0.00020686,
 0.00007076,-0.00464194,-0.00040059,-0.00369718,0.00126199,-0.00475759,
 -0.00729621,-0.04284199,-0.00026538,-0.01820236,-0.13874065,0.01333558
 ,-0.00649096,-0.04178897,-0.04401871,0.00000362,-0.00009908,-0.0000517
 4,0.00000150,0.00000178,0.00002920,0.00006816,0.00002879,0.00000280,-0
 .00014793,0.00015142,-0.00002203,-0.00020440,-0.00020929,0.00009448,-0
 .00001348,0.00029067,-0.00006921,0.00022456,-0.00016058,0.00004479,-0.
 00026704,-0.00126570,-0.00081108,-0.00275537,0.00367169,0.00010934,-0.
 00636707,-0.01423064,0.01209830,0.,0.,0.,0.,0.,0.,0.,0.,0.,0.,0.,0.,0.
 ,0.,0.,0.,0.,0.,0.,0.,0.,0.,0.,0.,0.,0.,0.,0.,0.,0.,0.,0.,0.,0.,0.,0.,
 0.,0.,0.,0.,0.,0.,0.,0.,0.,0.,0.,0.,0.,0.,0.,0.,0.,0.,0.,0.,0.,0.,0.,0
 .,0.,0.,0.,0.,0.,0.,0.,0.,0.,0.,0.,0.,0.,0.,0.,0.,0.,0.,0.,0.,0.,0.,0.
 ,0.,0.,0.,0.,-0.00092103,0.00011257,0.00078734,-0.00073935,-0.13744553
 ,-0.04658900,-0.01504986,0.02069696,0.03277585,0.05898807,0.35359538,0
 .,0.,0.,0.,0.,0.,0.00248904,-0.00101986,-0.00073839,0.,0.,0.,0.0022999
 7,-0.00118546,0.00384810,0.,0.,0.,0.,0.,0.,-0.01308743,-0.00239160,-0.
 00158232,0.00126557,0.00087056,0.00124612,0.,0.,0.,0.00330817,0.001842
 73,-0.00162002,0.,0.,0.,0.,0.,0.,0.,0.,0.,0.,0.,0.,0.,0.,0.,0.,0.,0.,0
 .,0.,0.,0.,0.,0.,0.,0.,0.,0.,0.,0.,0.,0.,0.,0.,0.,0.,0.,0.,0.,0.,0.,0.
 ,0.,0.,0.,0.,0.,0.,0.,0.,0.,0.,0.,0.,-0.00002513,0.00008166,0.00009231
 ,-0.00006120,0.00001368,-0.00025152,0.00023063,0.00028358,0.00001348,-
 0.00013904,0.00093731,0.00157368,-0.00034905,-0.00191294,0.00109247,0.
 00699903,0.00217354,-0.01289742,0.01480510,0.03735441,-0.09515797,0.00
 202773,-0.06457139,-0.03141594,0.00003142,0.00002822,0.00002743,0.0000
 1146,-0.00006210,0.00002769,0.00004925,0.00005414,0.00013873,-0.000027
 48,0.00000549,-0.00022809,0.00002908,-0.00022459,0.00007222,0.00021321
 ,-0.00175784,0.00003496,0.00003008,0.00024380,-0.00061609,-0.00080392,
 0.00021462,0.00232218,0.00636722,0.02309681,-0.00923215,0.01471988,0.0
 3188967,-0.01537420,0.,0.,0.,0.,0.,0.,0.,0.,0.,0.,0.,0.,0.,0.,0.,0.,0.
 ,0.,0.,0.,0.,0.,0.,0.,0.,0.,0.,0.,0.,0.,0.,0.,0.,0.,0.,0.,0.,0.,0.,0.,
 0.,0.,0.,0.,0.,0.,0.,0.,0.,0.,0.,0.,0.,0.,0.,0.,0.,0.,0.,0.,0.,0.,0.,0
 .,0.,0.,0.,0.,0.,0.,0.,0.,0.,0.,0.,0.,0.,0.,0.,0.,0.,0.,0.,0.,0.,0.,0.
 ,0.00221315,0.00303521,-0.00062765,0.04273903,-0.08413676,-0.23902115,
 0.04395994,0.01804231,-0.06890621,-0.12503777,0.03748488,0.46664396\\0
 .,0.,0.,0.,0.,0.,0.,0.,0.,0.,0.,0.,0.,0.,0.,0.,0.,0.,0.,0.,0.,0.,0.,0.
 ,0.,0.,0.,0.,0.,0.,0.,0.,0.,0.,0.,0.,0.,0.,0.,0.,0.,0.,0.,0.,0.,0.,0.,
 0.,0.,0.,0.,0.,0.,0.,0.,0.,0.,0.,0.,0.,0.,0.,0.,0.,0.,0.,0.,0.,0.,0.,0
 .,0.,0.,0.,0.,0.,0.,0.,0.,0.,0.,0.,0.,0.,0.,0.,0.,0.,-0.00000001,0.,0.
 ,0.,0.,0.,0.,0.,0.,0.,0.,0.00000001,0.,0.,0.,0.00000001,0.,0.,0.000000
 01,0.,0.,0.,0.,0.,0.,0.,0.,0.,-0.00000001,0.,0.,0.00000001,0.,0.,0.,0.
 ,0.,0.,0.,0.,0.,0.00000002,0.,0.,-0.00000001,0.,0.,0.,0.,0.,0.,0.,0.,0
 .,0.,0.,0.,0.,0.,0.,0.,0.,0.,0.,0.,0.,0.,0.,0.,0.,0.,0.,0.,0.,0.,0.,0.
 ,0.,0.,0.,0.,0.,0.,0.,0.,0.,0.,0.,0.,0.,0.,0.,0.,0.,0.,0.,0.,0.,0.,0.,
 0.,0.,0.,0.,0.,0.,0.,0.,0.,0.,0.,0.,0.,0.,0.,0.,0.,0.,0.,0.,0.,0.,0.,0
 .,0.,0.,0.,0.,0.,0.,0.,0.,0.,0.,0.,0.,0.,0.,0.,0.,0.,0.,0.,0.,0.,0.,0.
 ,0.,0.,0.,0.,0.\\\@


 "ANNA, YOU MUSN'T SPEAK OF OXIDIZED MURIATIC ACID
 ANYMORE, FROM NOW ON YOU MUST SAY CHLORINE."
   -- JENS JACOB BERZELIUS, IN 1820, TO HIS COOK, WHO HAD
 COMPLAINED OF THE SMELL OF THE FLASK SHE WAS CLEANING.
 Job cpu time:       1 days  1 hours 50 minutes 10.5 seconds.
 Elapsed time:       0 days  0 hours 24 minutes 29.5 seconds.
 File lengths (MBytes):  RWF=   3818 Int=      0 D2E=      0 Chk=     67 Scr=      2
 Normal termination of Gaussian 16 at Tue Aug  1 09:39:24 2023.
