 Entering Gaussian System, Link 0=g16
 Input=AGE_opt_freq.com
 Output=AGE_opt_freq.log
 Initial command:
 /opt/ohpc/pub/apps/gaussian/avx2/g16/l1.exe "/scratch/g16-tmp/Gau-486911.inp" -scrdir="/scratch/g16-tmp/"
 Entering Link 1 = /opt/ohpc/pub/apps/gaussian/avx2/g16/l1.exe PID=    486924.
  
 Copyright (c) 1988-2017, Gaussian, Inc.  All Rights Reserved.
  
 This is part of the Gaussian(R) 16 program.  It is based on
 the Gaussian(R) 09 system (copyright 2009, Gaussian, Inc.),
 the Gaussian(R) 03 system (copyright 2003, Gaussian, Inc.),
 the Gaussian(R) 98 system (copyright 1998, Gaussian, Inc.),
 the Gaussian(R) 94 system (copyright 1995, Gaussian, Inc.),
 the Gaussian 92(TM) system (copyright 1992, Gaussian, Inc.),
 the Gaussian 90(TM) system (copyright 1990, Gaussian, Inc.),
 the Gaussian 88(TM) system (copyright 1988, Gaussian, Inc.),
 the Gaussian 86(TM) system (copyright 1986, Carnegie Mellon
 University), and the Gaussian 82(TM) system (copyright 1983,
 Carnegie Mellon University). Gaussian is a federally registered
 trademark of Gaussian, Inc.
  
 This software contains proprietary and confidential information,
 including trade secrets, belonging to Gaussian, Inc.
  
 This software is provided under written license and may be
 used, copied, transmitted, or stored only in accord with that
 written license.
  
 The following legend is applicable only to US Government
 contracts under FAR:
  
                    RESTRICTED RIGHTS LEGEND
  
 Use, reproduction and disclosure by the US Government is
 subject to restrictions as set forth in subparagraphs (a)
 and (c) of the Commercial Computer Software - Restricted
 Rights clause in FAR 52.227-19.
  
 Gaussian, Inc.
 340 Quinnipiac St., Bldg. 40, Wallingford CT 06492
  
  
 ---------------------------------------------------------------
 Warning -- This program may not be used in any manner that
 competes with the business of Gaussian, Inc. or will provide
 assistance to any competitor of Gaussian, Inc.  The licensee
 of this program is prohibited from giving any competitor of
 Gaussian, Inc. access to this program.  By using this program,
 the user acknowledges that Gaussian, Inc. is engaged in the
 business of creating and licensing software in the field of
 computational chemistry and represents and warrants to the
 licensee that it is not a competitor of Gaussian, Inc. and that
 it will not use this program in any manner prohibited above.
 ---------------------------------------------------------------
  

 Cite this work as:
 Gaussian 16, Revision B.01,
 M. J. Frisch, G. W. Trucks, H. B. Schlegel, G. E. Scuseria, 
 M. A. Robb, J. R. Cheeseman, G. Scalmani, V. Barone, 
 G. A. Petersson, H. Nakatsuji, X. Li, M. Caricato, A. V. Marenich, 
 J. Bloino, B. G. Janesko, R. Gomperts, B. Mennucci, H. P. Hratchian, 
 J. V. Ortiz, A. F. Izmaylov, J. L. Sonnenberg, D. Williams-Young, 
 F. Ding, F. Lipparini, F. Egidi, J. Goings, B. Peng, A. Petrone, 
 T. Henderson, D. Ranasinghe, V. G. Zakrzewski, J. Gao, N. Rega, 
 G. Zheng, W. Liang, M. Hada, M. Ehara, K. Toyota, R. Fukuda, 
 J. Hasegawa, M. Ishida, T. Nakajima, Y. Honda, O. Kitao, H. Nakai, 
 T. Vreven, K. Throssell, J. A. Montgomery, Jr., J. E. Peralta, 
 F. Ogliaro, M. J. Bearpark, J. J. Heyd, E. N. Brothers, K. N. Kudin, 
 V. N. Staroverov, T. A. Keith, R. Kobayashi, J. Normand, 
 K. Raghavachari, A. P. Rendell, J. C. Burant, S. S. Iyengar, 
 J. Tomasi, M. Cossi, J. M. Millam, M. Klene, C. Adamo, R. Cammi, 
 J. W. Ochterski, R. L. Martin, K. Morokuma, O. Farkas, 
 J. B. Foresman, and D. J. Fox, Gaussian, Inc., Wallingford CT, 2016.
 
 ******************************************
 Gaussian 16:  ES64L-G16RevB.01 20-Dec-2017
                 9-May-2023 
 ******************************************
 %nprocshared=64
 Will use up to   64 processors via shared memory.
 %mem=64GB
 %chk=AGE_opt_freq.chk
 ----------------------------------------------------------------------
 # opt=(calcall,tight,cartesian) freq b3lyp/gen nosymm scf=(qc,maxcycle
 =1024) pseudo=read
 ----------------------------------------------------------------------
 1/7=10,10=4,18=10,26=3,38=1/1,3;
 2/12=2,15=1,17=6,18=5,29=2,40=1/2;
 3/5=7,11=2,16=1,17=8,25=1,30=1,71=2,74=-5,140=1/1,2,3;
 4//1;
 5/5=2,7=1024,8=3,38=5/8;
 8/6=4,10=90,11=11/1;
 11/6=1,8=1,9=11,15=111,16=1,31=1/1,2,10;
 10/6=1,31=1/2;
 6/7=2,8=2,9=2,10=2,18=1,28=1/1;
 7/7=1,10=1,25=1,30=1/1,2,3,16;
 1/7=10,10=4,18=10,26=3/3(3);
 2/15=1,29=1/2;
 7/7=1,8=1,9=1,25=1,30=1,44=-1/16;
 99/12=1/99;
 2/15=1,29=1/2;
 3/5=7,6=1,11=2,16=1,17=8,25=1,30=1,71=2,74=-5,82=7,140=1/1,2,3;
 4/5=5,16=3,69=1/1;
 5/5=2,7=1024,8=3,38=5/8;
 8/6=4,10=90,11=11/1;
 11/6=1,8=1,9=11,15=111,16=1,31=1/1,2,10;
 10/6=1,31=1/2;
 7/7=1,10=1,25=1,30=1/1,2,3,16;
 1/7=10,10=4,18=10,26=3/3(-8);
 2/15=1,29=1/2;
 6/7=2,8=2,9=2,10=2,18=1,19=2,28=1/1;
 7/7=1,8=1,9=1,25=1,30=1,44=-1/16;
 99/12=1/99;
 ------------
 AGE_opt_freq
 ------------
 Symbolic Z-matrix:
 Charge =  0 Multiplicity = 1
 C                    -10.65364  -2.99039  -1.17931 
 C                    -9.41268  -2.62491  -1.44166 
 C                    -8.32833  -2.54941  -0.42266 
 O                    -7.7023   -1.2875   -0.50891 
 C                    -6.61755  -1.14734   0.37307 
 C                    -6.08392   0.24632   0.24226 
 C                    -4.947     0.54724  -0.61613 
 O                    -4.79496   0.4556    0.79601 
 H                    -11.40085  -3.05887  -1.95838 
 H                    -10.97035  -3.23854  -0.17312 
 H                    -9.11799  -2.3685   -2.45389 
 H                    -7.58413  -3.33771  -0.60837 
 H                    -8.73411  -2.70916   0.58422 
 H                    -5.82232  -1.86838   0.14366 
 H                    -6.93878  -1.32371   1.40865 
 H                    -6.80191   1.03562   0.44579 
 H                    -4.83285   1.54352  -1.02866 
 H                    -4.48486  -0.25397  -1.18348 
 

 GradGradGradGradGradGradGradGradGradGradGradGradGradGradGradGradGradGrad
 Berny optimization.
 Initialization pass.
 No Z-matrix variables, so optimization will use Cartesian coordinates.
 Trust Radius=3.00D-01 FncErr=1.00D-07 GrdErr=1.00D-06 EigMax=2.50D+02 EigMin=1.00D-04
 Number of steps in this run=     64 maximum allowed number of steps=    108.
 GradGradGradGradGradGradGradGradGradGradGradGradGradGradGradGradGradGrad

 ---------------------------------------------------------------------------------------------------
                            Z-MATRIX (ANGSTROMS AND DEGREES)
   CD    Cent   Atom    N1       Length/X        N2       Alpha/Y        N3        Beta/Z          J
 ---------------------------------------------------------------------------------------------------
      1      1  C        0 -10.653642         -2.990393         -1.179314
      2      2  C        0  -9.412681         -2.624910         -1.441661
      3      3  C        0  -8.328326         -2.549414         -0.422660
      4      4  O        0  -7.702302         -1.287500         -0.508907
      5      5  C        0  -6.617546         -1.147344          0.373068
      6      6  C        0  -6.083915          0.246315          0.242258
      7      7  C        0  -4.947004          0.547244         -0.616133
      8      8  O        0  -4.794961          0.455595          0.796011
      9      9  H        0 -11.400848         -3.058870         -1.958381
     10     10  H        0 -10.970351         -3.238541         -0.173118
     11     11  H        0  -9.117990         -2.368502         -2.453885
     12     12  H        0  -7.584126         -3.337705         -0.608369
     13     13  H        0  -8.734111         -2.709159          0.584223
     14     14  H        0  -5.822320         -1.868375          0.143660
     15     15  H        0  -6.938781         -1.323707          1.408647
     16     16  H        0  -6.801913          1.035619          0.445791
     17     17  H        0  -4.832850          1.543524         -1.028657
     18     18  H        0  -4.484857         -0.253967         -1.183482
 ---------------------------------------------------------------------------------------------------
                         Z-Matrix orientation:                         
 ---------------------------------------------------------------------
 Center     Atomic      Atomic             Coordinates (Angstroms)
 Number     Number       Type             X           Y           Z
 ---------------------------------------------------------------------
      1          6           0      -10.653642   -2.990393   -1.179314
      2          6           0       -9.412681   -2.624910   -1.441661
      3          6           0       -8.328326   -2.549414   -0.422660
      4          8           0       -7.702302   -1.287500   -0.508907
      5          6           0       -6.617546   -1.147344    0.373068
      6          6           0       -6.083915    0.246315    0.242258
      7          6           0       -4.947004    0.547244   -0.616133
      8          8           0       -4.794961    0.455595    0.796011
      9          1           0      -11.400848   -3.058870   -1.958381
     10          1           0      -10.970351   -3.238541   -0.173118
     11          1           0       -9.117990   -2.368502   -2.453885
     12          1           0       -7.584126   -3.337705   -0.608369
     13          1           0       -8.734111   -2.709159    0.584223
     14          1           0       -5.822320   -1.868375    0.143660
     15          1           0       -6.938781   -1.323707    1.408647
     16          1           0       -6.801913    1.035619    0.445791
     17          1           0       -4.832850    1.543524   -1.028657
     18          1           0       -4.484857   -0.253967   -1.183482
 ---------------------------------------------------------------------
                    Distance matrix (angstroms):
                    1          2          3          4          5
     1  C    0.000000
     2  C    1.319995   0.000000
     3  C    2.484770   1.489929   0.000000
     4  O    3.472708   2.363068   1.411301   0.000000
     5  C    4.700722   3.645439   2.350692   1.405069   0.000000
     6  C    5.777504   4.707462   3.646313   2.352874   1.498052
     7  C    6.737786   5.539524   4.589124   3.312016   2.576986
     8  O    7.078198   5.984983   4.795822   3.632330   2.463759
     9  H    1.081643   2.099554   3.472517   4.349479   5.654163
    10  H    1.083657   2.100495   2.741799   3.820924   4.859870
    11  H    2.090337   1.084982   2.186818   2.637362   3.966751
    12  H    3.141422   2.132150   1.099875   2.056015   2.587504
    13  H    2.621785   2.138168   1.097266   2.068980   2.638882
    14  H    5.133309   3.997034   2.657931   2.073063   1.097679
    15  H    4.824477   3.992188   2.605164   2.064289   1.098508
    16  H    5.803926   4.876275   3.992068   2.668151   2.191941
    17  H    7.379751   6.206550   5.416431   4.064307   3.520049
    18  H    6.748478   5.474621   4.540945   3.446040   2.787352
                    6          7          8          9         10
     6  C    0.000000
     7  C    1.456008   0.000000
     8  O    1.418394   1.423259   0.000000
     9  H    6.636026   7.513840   7.973449   0.000000
    10  H    6.016146   7.128053   7.260943   1.845203   0.000000
    11  H    4.828257   5.410733   6.101305   2.435893   3.064328
    12  H    3.977361   4.695455   4.913334   4.058035   3.415523
    13  H    3.984383   5.136847   5.057413   3.701165   2.419624
    14  H    2.133089   2.679306   2.623331   6.079131   5.336659
    15  H    2.134532   3.401083   2.852578   5.853009   4.735201
    16  H    1.086254   2.192460   2.118239   6.610226   6.002280
    17  H    2.205253   1.084334   2.124721   8.073724   7.827452
    18  H    2.200001   1.085082   2.125567   7.503258   7.210420
                   11         12         13         14         15
    11  H    0.000000
    12  H    2.588054   0.000000
    13  H    3.081154   1.771951   0.000000
    14  H    4.225968   2.414216   3.062604   0.000000
    15  H    4.556282   2.922501   2.412957   1.772947   0.000000
    16  H    5.035908   4.566079   4.216149   3.079621   2.551910
    17  H    5.974751   5.618946   5.992206   3.740913   4.312355
    18  H    5.248915   4.409724   5.216216   2.481215   3.726288
                   16         17         18
    16  H    0.000000
    17  H    2.511807   0.000000
    18  H    3.112284   1.837401   0.000000
 Symmetry turned off by external request.
 Stoichiometry    C6H10O2
 Framework group  C1[X(C6H10O2)]
 Deg. of freedom    48
 Full point group                 C1      NOp   1
 Rotational constants (GHZ):           9.2450933           0.7237958           0.7044690
 General basis read from cards:  (5D, 7F)
 ======================================================================================================
                                       Pseudopotential Parameters
 ======================================================================================================
  Center     Atomic      Valence      Angular      Power
  Number     Number     Electrons     Momentum     of R      Exponent        Coefficient   SO-Coeffient
 ======================================================================================================
    1          6
                                   No pseudopotential on this center.
    2          6
                                   No pseudopotential on this center.
    3          6
                                   No pseudopotential on this center.
    4          8
                                   No pseudopotential on this center.
    5          6
                                   No pseudopotential on this center.
    6          6
                                   No pseudopotential on this center.
    7          6
                                   No pseudopotential on this center.
    8          8
                                   No pseudopotential on this center.
    9          1
                                   No pseudopotential on this center.
   10          1
                                   No pseudopotential on this center.
   11          1
                                   No pseudopotential on this center.
   12          1
                                   No pseudopotential on this center.
   13          1
                                   No pseudopotential on this center.
   14          1
                                   No pseudopotential on this center.
   15          1
                                   No pseudopotential on this center.
   16          1
                                   No pseudopotential on this center.
   17          1
                                   No pseudopotential on this center.
   18          1
                                   No pseudopotential on this center.
 ======================================================================================================
   194 basis functions,   326 primitive gaussians,   202 cartesian basis functions
    31 alpha electrons       31 beta electrons
       nuclear repulsion energy       360.9827501615 Hartrees.
 NAtoms=   18 NActive=   18 NUniq=   18 SFac= 1.00D+00 NAtFMM=   60 NAOKFM=F Big=F
 Integral buffers will be    131072 words long.
 Raffenetti 2 integral format.
 Two-electron integral symmetry is turned off.
 One-electron integrals computed using PRISM.
   1 Symmetry operations used in ECPInt.
 ECPInt:  NShTT=    2485 NPrTT=   10905 LenC2=    2355 LenP2D=    7565.
 LDataN:  DoStor=T MaxTD1= 4 Len=   56
 NBasis=   194 RedAO= T EigKep=  4.19D-05  NBF=   194
 NBsUse=   194 1.00D-06 EigRej= -1.00D+00 NBFU=   194
 ExpMin= 4.38D-02 ExpMax= 5.48D+03 ExpMxC= 8.25D+02 IAcc=3 IRadAn=         5 AccDes= 0.00D+00
 Harris functional with IExCor=  402 and IRadAn=       5 diagonalized for initial guess.
 HarFok:  IExCor=  402 AccDes= 0.00D+00 IRadAn=         5 IDoV= 1 UseB2=F ITyADJ=14
 ICtDFT=  3500011 ScaDFX=  1.000000  1.000000  1.000000  1.000000
 FoFCou: FMM=F IPFlag=           0 FMFlag=      100000 FMFlg1=           0
         NFxFlg=           0 DoJE=T BraDBF=F KetDBF=T FulRan=T
         wScrn=  0.000000 ICntrl=       500 IOpCl=  0 I1Cent=   200000004 NGrid=           0
         NMat0=    1 NMatS0=      1 NMatT0=    0 NMatD0=    1 NMtDS0=    0 NMtDT0=    0
 Symmetry not used in FoFCou.
 Gradient too large for Newton-Raphson -- use scaled steepest descent instead.
     Accept linear search using points  2 and  3.
 Gradient too large for Newton-Raphson -- use scaled steepest descent instead.
     Accept linear search using points  2 and  3.
 Gradient too large for Newton-Raphson -- use scaled steepest descent instead.
 Gradient too large for Newton-Raphson -- use scaled steepest descent instead.
     Accept linear search using points  1 and  2.
 Gradient too large for Newton-Raphson -- use scaled steepest descent instead.
     Minimum is close to point  3 DX=  4.06D-03 DF= -1.42D-09 DXR=  4.49D-03 DFR=  2.02D-05 which will be used.
 LinEq1:  Iter=  0 NonCon=     1 RMS=3.72D-05 Max=5.44D-04 NDo=     1
 AX will form     1 AO Fock derivatives at one time.
 LinEq1:  Iter=  1 NonCon=     1 RMS=2.68D-05 Max=5.14D-04 NDo=     1
 LinEq1:  Iter=  2 NonCon=     1 RMS=6.13D-06 Max=1.11D-04 NDo=     1
 LinEq1:  Iter=  3 NonCon=     1 RMS=3.93D-06 Max=6.08D-05 NDo=     1
 LinEq1:  Iter=  4 NonCon=     1 RMS=1.59D-06 Max=2.28D-05 NDo=     1
 LinEq1:  Iter=  5 NonCon=     1 RMS=8.99D-07 Max=2.93D-05 NDo=     1
 LinEq1:  Iter=  6 NonCon=     1 RMS=5.76D-07 Max=1.28D-05 NDo=     1
 LinEq1:  Iter=  7 NonCon=     1 RMS=1.44D-07 Max=1.71D-06 NDo=     1
 LinEq1:  Iter=  8 NonCon=     1 RMS=7.42D-08 Max=1.14D-06 NDo=     1
 LinEq1:  Iter=  9 NonCon=     1 RMS=3.19D-08 Max=5.45D-07 NDo=     1
 LinEq1:  Iter= 10 NonCon=     1 RMS=8.95D-09 Max=1.30D-07 NDo=     1
 LinEq1:  Iter= 11 NonCon=     0 RMS=3.85D-09 Max=4.08D-08 NDo=     1
 Linear equations converged to 1.005D-08 1.005D-07 after    11 iterations.
     Minimum is close to point  2 DX=  1.84D-04 DF= -5.68D-14 DXR=  1.84D-04 DFR=  1.28D-08 which will be used.
 SCF Done:  E(RB3LYP) =  -385.038732084     a.u. after    7 cycles
            Convg  =    0.9435D-06                    28 Fock formations.
              S**2 =  0.0000                  -V/T =  2.0063
 DoSCS=F DFT=T ScalE2(SS,OS)=  1.000000  1.000000
 Range of M.O.s used for correlation:     1   194
 NBasis=   194 NAE=    31 NBE=    31 NFC=     0 NFV=     0
 NROrb=    194 NOA=    31 NOB=    31 NVA=   163 NVB=   163

 **** Warning!!: The largest alpha MO coefficient is  0.42403259D+02

   1 Symmetry operations used in ECPInt.
 ECPInt:  NShTT=    2485 NPrTT=   10905 LenC2=    2355 LenP2D=    7565.
 LDataN:  DoStor=T MaxTD1= 5 Len=  102
 Symmetrizing basis deriv contribution to polar:
 IMax=3 JMax=2 DiffMx= 0.00D+00
 G2DrvN: will do    19 centers at a time, making    1 passes.
 Calling FoFCou, ICntrl=  3107 FMM=F I1Cent=   0 AccDes= 0.00D+00.
 End of G2Drv F.D. properties file   721 does not exist.
 End of G2Drv F.D. properties file   722 does not exist.
 End of G2Drv F.D. properties file   788 does not exist.
          IDoAtm=111111111111111111
          Differentiating once with respect to electric field.
                with respect to dipole field.
          Differentiating once with respect to nuclear coordinates.
 Keep R1 ints in memory in canonical form, NReq=244640429.
          There are    57 degrees of freedom in the 1st order CPHF.  IDoFFX=6 NUNeed=     3.
     54 vectors produced by pass  0 Test12= 8.86D-15 1.75D-09 XBig12= 7.12D+01 3.57D+00.
 AX will form    54 AO Fock derivatives at one time.
     54 vectors produced by pass  1 Test12= 8.86D-15 1.75D-09 XBig12= 1.03D+01 4.09D-01.
     54 vectors produced by pass  2 Test12= 8.86D-15 1.75D-09 XBig12= 1.24D-01 3.52D-02.
     54 vectors produced by pass  3 Test12= 8.86D-15 1.75D-09 XBig12= 3.66D-04 2.20D-03.
     54 vectors produced by pass  4 Test12= 8.86D-15 1.75D-09 XBig12= 5.02D-07 7.34D-05.
     29 vectors produced by pass  5 Test12= 8.86D-15 1.75D-09 XBig12= 4.38D-10 2.01D-06.
      3 vectors produced by pass  6 Test12= 8.86D-15 1.75D-09 XBig12= 3.05D-13 5.82D-08.
 InvSVY:  IOpt=1 It=  1 EMax= 3.55D-15
 Solved reduced A of dimension   302 with    57 vectors.
 Isotropic polarizability for W=    0.000000       78.67 Bohr**3.
 End of Minotr F.D. properties file   721 does not exist.
 End of Minotr F.D. properties file   722 does not exist.
 End of Minotr F.D. properties file   788 does not exist.

 **********************************************************************

            Population analysis using the SCF Density.

 **********************************************************************

 Alpha  occ. eigenvalues --  -19.16990 -19.16446 -10.24519 -10.24293 -10.24141
 Alpha  occ. eigenvalues --  -10.24019 -10.19702 -10.18967  -1.09351  -1.05652
 Alpha  occ. eigenvalues --   -0.80751  -0.74977  -0.67806  -0.66698  -0.60778
 Alpha  occ. eigenvalues --   -0.57324  -0.52880  -0.50655  -0.50291  -0.48425
 Alpha  occ. eigenvalues --   -0.46142  -0.43559  -0.41003  -0.40030  -0.38992
 Alpha  occ. eigenvalues --   -0.36256  -0.33810  -0.31766  -0.28562  -0.28095
 Alpha  occ. eigenvalues --   -0.26991
 Alpha virt. eigenvalues --   -0.01063   0.00839   0.01722   0.02029   0.02381
 Alpha virt. eigenvalues --    0.03135   0.03673   0.04829   0.05463   0.06155
 Alpha virt. eigenvalues --    0.06832   0.07500   0.08392   0.09005   0.09550
 Alpha virt. eigenvalues --    0.10576   0.11312   0.12031   0.12668   0.13682
 Alpha virt. eigenvalues --    0.14672   0.14963   0.16145   0.17209   0.17916
 Alpha virt. eigenvalues --    0.18406   0.20153   0.20699   0.21906   0.23195
 Alpha virt. eigenvalues --    0.23533   0.23915   0.24506   0.25685   0.25766
 Alpha virt. eigenvalues --    0.25940   0.26779   0.27967   0.29346   0.29905
 Alpha virt. eigenvalues --    0.30494   0.32211   0.32887   0.35160   0.36199
 Alpha virt. eigenvalues --    0.37190   0.38292   0.38436   0.40365   0.42107
 Alpha virt. eigenvalues --    0.43673   0.58575   0.60649   0.61272   0.64770
 Alpha virt. eigenvalues --    0.66300   0.66975   0.69504   0.70635   0.71347
 Alpha virt. eigenvalues --    0.74183   0.76651   0.80438   0.81020   0.84573
 Alpha virt. eigenvalues --    0.86052   0.88188   0.89055   0.90805   0.91891
 Alpha virt. eigenvalues --    0.94253   0.97685   0.98021   1.00569   1.01555
 Alpha virt. eigenvalues --    1.02517   1.05069   1.06122   1.09826   1.11822
 Alpha virt. eigenvalues --    1.17419   1.19366   1.21083   1.25876   1.28230
 Alpha virt. eigenvalues --    1.29282   1.30164   1.31423   1.38341   1.39022
 Alpha virt. eigenvalues --    1.41126   1.44164   1.46353   1.47504   1.50160
 Alpha virt. eigenvalues --    1.56599   1.57243   1.63737   1.68056   1.72873
 Alpha virt. eigenvalues --    1.76773   1.81043   1.81483   1.85950   1.87888
 Alpha virt. eigenvalues --    1.89680   1.91334   1.92734   1.94282   1.96494
 Alpha virt. eigenvalues --    1.97838   2.00100   2.01478   2.04588   2.06963
 Alpha virt. eigenvalues --    2.07864   2.09844   2.12030   2.13612   2.15619
 Alpha virt. eigenvalues --    2.21188   2.22299   2.22819   2.24187   2.30640
 Alpha virt. eigenvalues --    2.35172   2.35711   2.39832   2.43502   2.45899
 Alpha virt. eigenvalues --    2.51203   2.51837   2.53670   2.57414   2.58470
 Alpha virt. eigenvalues --    2.64231   2.66277   2.68315   2.70204   2.72744
 Alpha virt. eigenvalues --    2.74856   2.78316   2.80010   2.81752   2.82560
 Alpha virt. eigenvalues --    2.85447   2.85675   2.91239   2.96941   3.01516
 Alpha virt. eigenvalues --    3.02771   3.08673   3.10075   3.27707   3.30338
 Alpha virt. eigenvalues --    3.32505   3.36194   3.41317   3.44187   3.47191
 Alpha virt. eigenvalues --    3.49170   3.56226   3.70615
          Condensed to atoms (all electrons):
               1          2          3          4          5          6
     1  C    5.070950   0.393984   0.030294   0.003813  -0.021271  -0.000875
     2  C    0.393984   5.268038   0.209391  -0.002374   0.007379  -0.057470
     3  C    0.030294   0.209391   5.261415   0.042163  -0.062671  -0.048834
     4  O    0.003813  -0.002374   0.042163   8.464548   0.104697  -0.054055
     5  C   -0.021271   0.007379  -0.062671   0.104697   5.582149  -0.176315
     6  C   -0.000875  -0.057470  -0.048834  -0.054055  -0.176315   6.476725
     7  C    0.000165  -0.006851   0.002209  -0.014224  -0.033580  -0.300703
     8  O    0.000324   0.000241   0.008206   0.006034  -0.078122   0.148353
     9  H    0.387531  -0.039625   0.016085   0.000152   0.000563   0.000017
    10  H    0.432777  -0.101166   0.012956   0.000797   0.001207   0.000245
    11  H   -0.002737   0.351434  -0.034090  -0.001551  -0.000307  -0.003067
    12  H   -0.026647   0.039620   0.376077  -0.062025  -0.015427  -0.011188
    13  H    0.033199  -0.087281   0.421229  -0.056104  -0.002832  -0.006380
    14  H   -0.001733  -0.001775   0.003910  -0.055091   0.442798  -0.123381
    15  H    0.002360  -0.010470  -0.031184  -0.056219   0.331549   0.094192
    16  H    0.000783  -0.004728   0.006133   0.003623  -0.056483   0.331263
    17  H    0.000053  -0.000064   0.001623   0.000164   0.012783  -0.053636
    18  H   -0.000119   0.001173  -0.000755   0.001873   0.041722  -0.098038
               7          8          9         10         11         12
     1  C    0.000165   0.000324   0.387531   0.432777  -0.002737  -0.026647
     2  C   -0.006851   0.000241  -0.039625  -0.101166   0.351434   0.039620
     3  C    0.002209   0.008206   0.016085   0.012956  -0.034090   0.376077
     4  O   -0.014224   0.006034   0.000152   0.000797  -0.001551  -0.062025
     5  C   -0.033580  -0.078122   0.000563   0.001207  -0.000307  -0.015427
     6  C   -0.300703   0.148353   0.000017   0.000245  -0.003067  -0.011188
     7  C    5.381114   0.061671  -0.000009   0.000016  -0.000362   0.000865
     8  O    0.061671   8.309036   0.000000   0.000000   0.000002   0.000000
     9  H   -0.000009   0.000000   0.541716  -0.036438  -0.007554  -0.000243
    10  H    0.000016   0.000000  -0.036438   0.549483   0.004771   0.000272
    11  H   -0.000362   0.000002  -0.007554   0.004771   0.553464  -0.003316
    12  H    0.000865   0.000000  -0.000243   0.000272  -0.003316   0.621376
    13  H   -0.001289  -0.000003   0.000202   0.003843   0.004335  -0.052918
    14  H    0.023372   0.010406  -0.000000   0.000000  -0.000013   0.008882
    15  H   -0.010255  -0.006341   0.000000  -0.000003  -0.000004  -0.002914
    16  H    0.039218  -0.034511   0.000000  -0.000000   0.000002  -0.000007
    17  H    0.411162  -0.038334   0.000000   0.000000   0.000000   0.000000
    18  H    0.422540  -0.038848  -0.000000   0.000000  -0.000000   0.000014
              13         14         15         16         17         18
     1  C    0.033199  -0.001733   0.002360   0.000783   0.000053  -0.000119
     2  C   -0.087281  -0.001775  -0.010470  -0.004728  -0.000064   0.001173
     3  C    0.421229   0.003910  -0.031184   0.006133   0.001623  -0.000755
     4  O   -0.056104  -0.055091  -0.056219   0.003623   0.000164   0.001873
     5  C   -0.002832   0.442798   0.331549  -0.056483   0.012783   0.041722
     6  C   -0.006380  -0.123381   0.094192   0.331263  -0.053636  -0.098038
     7  C   -0.001289   0.023372  -0.010255   0.039218   0.411162   0.422540
     8  O   -0.000003   0.010406  -0.006341  -0.034511  -0.038334  -0.038848
     9  H    0.000202  -0.000000   0.000000   0.000000   0.000000  -0.000000
    10  H    0.003843   0.000000  -0.000003  -0.000000   0.000000   0.000000
    11  H    0.004335  -0.000013  -0.000004   0.000002   0.000000  -0.000000
    12  H   -0.052918   0.008882  -0.002914  -0.000007   0.000000   0.000014
    13  H    0.620394  -0.002426   0.008599  -0.000021  -0.000000  -0.000000
    14  H   -0.002426   0.622717  -0.054689   0.004926   0.000279   0.002251
    15  H    0.008599  -0.054689   0.613861  -0.005990  -0.000162   0.000107
    16  H   -0.000021   0.004926  -0.005990   0.568156  -0.000275   0.000946
    17  H   -0.000000   0.000279  -0.000162  -0.000275   0.569497  -0.042103
    18  H   -0.000000   0.002251   0.000107   0.000946  -0.042103   0.574656
 Mulliken charges:
               1
     1  C   -0.302852
     2  C    0.040543
     3  C   -0.214160
     4  O   -0.326222
     5  C   -0.077838
     6  C   -0.116853
     7  C    0.024940
     8  O   -0.348114
     9  H    0.137602
    10  H    0.131240
    11  H    0.138992
    12  H    0.127578
    13  H    0.117454
    14  H    0.119567
    15  H    0.127564
    16  H    0.146964
    17  H    0.139013
    18  H    0.134582
 Sum of Mulliken charges =   0.00000
 Mulliken charges with hydrogens summed into heavy atoms:
               1
     1  C   -0.034010
     2  C    0.179535
     3  C    0.030872
     4  O   -0.326222
     5  C    0.169293
     6  C    0.030111
     7  C    0.298535
     8  O   -0.348114
 APT charges:
               1
     1  C   -0.102340
     2  C   -0.008310
     3  C    0.616450
     4  O   -0.834746
     5  C    0.565782
     6  C    0.334114
     7  C    0.294092
     8  O   -0.585203
     9  H    0.032100
    10  H    0.034148
    11  H    0.023599
    12  H   -0.089597
    13  H   -0.072348
    14  H   -0.071007
    15  H   -0.081033
    16  H   -0.029655
    17  H   -0.017006
    18  H   -0.009040
 Sum of APT charges =   0.00000
 APT charges with hydrogens summed into heavy atoms:
               1
     1  C   -0.036092
     2  C    0.015289
     3  C    0.454505
     4  O   -0.834746
     5  C    0.413741
     6  C    0.304460
     7  C    0.268046
     8  O   -0.585203
 Electronic spatial extent (au):  <R**2>=          13732.1050
 Charge=              0.0000 electrons
 Dipole moment (field-independent basis, Debye):
    X=             -0.8506    Y=             -1.1296    Z=             -0.8870  Tot=              1.6693
 Quadrupole moment (field-independent basis, Debye-Ang):
   XX=            -39.2567   YY=            -45.7842   ZZ=            -49.1491
   XY=              9.0927   XZ=              0.9731   YZ=             -1.5542
 Traceless Quadrupole moment (field-independent basis, Debye-Ang):
   XX=              5.4733   YY=             -1.0542   ZZ=             -4.4191
   XY=              9.0927   XZ=              0.9731   YZ=             -1.5542
 Octapole moment (field-independent basis, Debye-Ang**2):
  XXX=            984.5285  YYY=            186.5648  ZZZ=             47.9632  XYY=            337.4744
  XXY=            -23.0143  XXZ=             31.7489  XZZ=            355.4654  YZZ=             57.4549
  YYZ=             19.2478  XYZ=              7.8265
 Hexadecapole moment (field-independent basis, Debye-Ang**3):
 XXXX=         -16122.9766 YYYY=          -1158.5831 ZZZZ=           -268.9396 XXXY=           -875.4983
 XXXZ=           -689.6802 YYYX=          -1779.8108 YYYZ=           -184.1045 ZZZX=           -499.1958
 ZZZY=           -151.2291 XXYY=          -2858.3580 XXZZ=          -2818.9912 YYZZ=           -231.4465
 XXYZ=            -82.7288 YYXZ=           -204.0231 ZZXY=           -545.0210
 N-N= 3.609827501615D+02 E-N=-1.619759808350D+03  KE= 3.826220544187D+02
  Exact polarizability:  95.481  15.288  71.279   1.149  -0.588  69.240
 Approx polarizability: 123.282  10.579  90.391  -4.157  -3.650  97.873
   1 Symmetry operations used in ECPInt.
 ECPInt:  NShTT=    2485 NPrTT=   10905 LenC2=    2355 LenP2D=    7565.
 LDataN:  DoStor=T MaxTD1= 6 Len=  172
 Calling FoFJK, ICntrl=    100127 FMM=F ISym2X=0 I1Cent= 0 IOpClX= 0 NMat=1 NMatS=1 NMatT=0.
 -------------------------------------------------------------------
 Center     Atomic                   Forces (Hartrees/Bohr)
 Number     Number              X              Y              Z
 -------------------------------------------------------------------
      1        6          -0.014150004   -0.004125743    0.002721472
      2        6           0.011635598    0.003925660   -0.004902830
      3        6          -0.000773535   -0.003851507    0.001393669
      4        8          -0.002385099    0.005977202   -0.005214765
      5        6           0.002255801   -0.002296087    0.003235339
      6        6          -0.009411981    0.000953155    0.000374800
      7        6           0.003772967    0.001828820   -0.010185003
      8        8           0.009214155    0.001148957    0.012075745
      9        1          -0.002558761   -0.000434329   -0.001945968
     10        1          -0.001557856   -0.000802160    0.002725060
     11        1           0.001051690    0.000678801   -0.002978481
     12        1           0.002366318   -0.002598448   -0.000403068
     13        1          -0.001064095   -0.000828158    0.003106428
     14        1           0.002279422   -0.002253732   -0.000344325
     15        1          -0.000720925   -0.000650741    0.003192709
     16        1          -0.002328706    0.002445287    0.000801190
     17        1           0.000639888    0.003027826   -0.001583702
     18        1           0.001735124   -0.002144803   -0.002068269
 -------------------------------------------------------------------
 Cartesian Forces:  Max     0.014150004 RMS     0.004435294

 GradGradGradGradGradGradGradGradGradGradGradGradGradGradGradGradGradGrad
 Berny optimization.
 Search for a local minimum.
 Step number   1 out of a maximum of   64
 All quantities printed in internal units (Hartrees-Bohrs-Radians)
 Second derivative matrix not updated -- analytic derivatives used.
 ITU=  0
     Eigenvalues ---   -0.00162  -0.00153  -0.00023   0.00065   0.00089
     Eigenvalues ---    0.00778   0.01102   0.01416   0.02031   0.02697
     Eigenvalues ---    0.03774   0.04137   0.04533   0.05629   0.05980
     Eigenvalues ---    0.06360   0.07299   0.08173   0.09453   0.09654
     Eigenvalues ---    0.11474   0.12609   0.13231   0.13965   0.15119
     Eigenvalues ---    0.16206   0.17919   0.19060   0.20992   0.21454
     Eigenvalues ---    0.28701   0.30504   0.34556   0.43513   0.49630
     Eigenvalues ---    0.56086   0.61007   0.64374   0.69533   0.76710
     Eigenvalues ---    0.79092   0.82414   0.84913   0.90015   0.95772
     Eigenvalues ---    0.98878   1.15703   1.57890
 RFO step:  Lambda=-2.26646939D-03 EMin=-1.61792317D-03
 Linear search not attempted -- first point.
 Maximum step size (   0.300) exceeded in Quadratic search.
    -- Step size scaled by   0.316
 B after Tr=     0.004410   -0.002400   -0.012641
         Rot=    1.000000   -0.000361   -0.000462   -0.000018 Ang=  -0.07 deg.
 Variable       Old X    -DE/DX   Delta X   Delta X   Delta X     New X
                                 (Linear)    (Quad)   (Total)
    X1      -20.13247  -0.01415   0.00000  -0.00762  -0.00507 -20.13754
    Y1       -5.65102  -0.00413   0.00000   0.05226   0.05075  -5.60028
    Z1       -2.22858   0.00272   0.00000  -0.01992  -0.01800  -2.24658
    X2      -17.78739   0.01164   0.00000   0.02894   0.03100 -17.75639
    Y2       -4.96036   0.00393   0.00000  -0.03839  -0.03946  -4.99982
    Z2       -2.72434  -0.00490   0.00000  -0.01716  -0.01701  -2.74135
    X3      -15.73826  -0.00077   0.00000   0.00921   0.01308 -15.72518
    Y3       -4.81769  -0.00385   0.00000  -0.02504  -0.02745  -4.84515
    Z3       -0.79871   0.00139   0.00000   0.01051   0.00890  -0.78981
    X4      -14.55524  -0.00239   0.00000   0.00953   0.01316 -14.54208
    Y4       -2.43302   0.00598   0.00000  -0.01529  -0.01753  -2.45056
    Z4       -0.96169  -0.00521   0.00000   0.01092   0.00995  -0.95174
    X5      -12.50535   0.00226   0.00000   0.00397   0.00914 -12.49621
    Y5       -2.16817  -0.00230   0.00000  -0.00846  -0.01185  -2.18001
    Z5        0.70500   0.00324   0.00000   0.02972   0.02706   0.73205
    X6      -11.49693  -0.00941   0.00000  -0.00206   0.00279 -11.49414
    Y6        0.46547   0.00095   0.00000   0.00145  -0.00173   0.46374
    Z6        0.45780   0.00037   0.00000   0.03621   0.03453   0.49233
    X7       -9.34848   0.00377   0.00000  -0.04808  -0.04481  -9.39329
    Y7        1.03414   0.00183   0.00000   0.01975   0.01786   1.05201
    Z7       -1.16432  -0.01019   0.00000  -0.03004  -0.03324  -1.19756
    X8       -9.06116   0.00921   0.00000   0.04006   0.04580  -9.01536
    Y8        0.86095   0.00115   0.00000  -0.00908  -0.01287   0.84808
    Z8        1.50424   0.01208   0.00000  -0.03222  -0.03592   1.46833
    X9      -21.54448  -0.00256   0.00000   0.00382   0.00500 -21.53948
    Y9       -5.78043  -0.00043   0.00000   0.04435   0.04386  -5.73657
    Z9       -3.70080  -0.00195   0.00000  -0.03373  -0.03062  -3.73142
   X10      -20.73096  -0.00156   0.00000  -0.04524  -0.04092 -20.77188
   Y10       -6.11996  -0.00080   0.00000   0.13197   0.12905  -5.99090
   Z10       -0.32715   0.00273   0.00000  -0.00931  -0.00708  -0.33422
   X11      -17.23050   0.00105   0.00000   0.06545   0.06573 -17.16478
   Y11       -4.47582   0.00068   0.00000  -0.11649  -0.11616  -4.59198
   Z11       -4.63717  -0.00298   0.00000  -0.02898  -0.02908  -4.66625
   X12      -14.33192   0.00237   0.00000   0.01988   0.02350 -14.30842
   Y12       -6.30735  -0.00260   0.00000  -0.02421  -0.02633  -6.33367
   Z12       -1.14965  -0.00040   0.00000   0.03502   0.03103  -1.11862
   X13      -16.50508  -0.00106   0.00000  -0.01415  -0.00853 -16.51361
   Y13       -5.11957  -0.00083   0.00000  -0.01443  -0.01824  -5.13781
   Z13        1.10402   0.00311   0.00000   0.00547   0.00438   1.10840
   X14      -11.00259   0.00228   0.00000   0.01430   0.01912 -10.98347
   Y14       -3.53072  -0.00225   0.00000  -0.00201  -0.00504  -3.53575
   Z14        0.27148  -0.00034   0.00000   0.03451   0.02947   0.30094
   X15      -13.11240  -0.00072   0.00000  -0.00889  -0.00190 -13.11429
   Y15       -2.50144  -0.00065   0.00000  -0.01507  -0.01989  -2.52133
   Z15        2.66196   0.00319   0.00000   0.02714   0.02480   2.68675
   X16      -12.85375  -0.00233   0.00000   0.01090   0.01611 -12.83764
   Y16        1.95704   0.00245   0.00000   0.00107  -0.00248   1.95456
   Z16        0.84242   0.00080   0.00000   0.09675   0.09738   0.93981
   X17       -9.13276   0.00064   0.00000  -0.06980  -0.06730  -9.20007
   Y17        2.91684   0.00303   0.00000   0.03061   0.02929   2.94612
   Z17       -1.94388  -0.00158   0.00000  -0.01639  -0.01840  -1.96228
   X18       -8.47515   0.00174   0.00000  -0.07819  -0.07590  -8.55105
   Y18       -0.47993  -0.00214   0.00000   0.02926   0.02821  -0.45172
   Z18       -2.23646  -0.00207   0.00000  -0.07309  -0.07816  -2.31461
         Item               Value     Threshold  Converged?
 Maximum Force            0.014150     0.000015     NO 
 RMS     Force            0.004435     0.000010     NO 
 Maximum Displacement     0.129054     0.000060     NO 
 RMS     Displacement     0.040695     0.000040     NO 
 Predicted change in Energy=-6.873061D-04
 GradGradGradGradGradGradGradGradGradGradGradGradGradGradGradGradGradGrad

                          Input orientation:                          
 ---------------------------------------------------------------------
 Center     Atomic      Atomic             Coordinates (Angstroms)
 Number     Number       Type             X           Y           Z
 ---------------------------------------------------------------------
      1          6           0      -10.656327   -2.963539   -1.188838
      2          6           0       -9.396275   -2.645791   -1.450661
      3          6           0       -8.321406   -2.563941   -0.417948
      4          8           0       -7.695339   -1.296778   -0.503642
      5          6           0       -6.612710   -1.153613    0.387386
      6          6           0       -6.082437    0.245401    0.260530
      7          6           0       -4.970716    0.556698   -0.633724
      8          8           0       -4.770723    0.448783    0.777005
      9          1           0      -11.398204   -3.035662   -1.974583
     10          1           0      -10.992003   -3.170248   -0.176864
     11          1           0       -9.083210   -2.429970   -2.469273
     12          1           0       -7.571690   -3.351636   -0.591950
     13          1           0       -8.738623   -2.718810    0.586542
     14          1           0       -5.812202   -1.871041    0.159253
     15          1           0       -6.939784   -1.334232    1.421768
     16          1           0       -6.793387    1.034308    0.497324
     17          1           0       -4.868466    1.559022   -1.038396
     18          1           0       -4.525020   -0.239040   -1.224841
 ---------------------------------------------------------------------
                    Distance matrix (angstroms):
                    1          2          3          4          5
     1  C    0.000000
     2  C    1.325612   0.000000
     3  C    2.491146   1.492829   0.000000
     4  O    3.466272   2.368515   1.415982   0.000000
     5  C    4.702250   3.654209   2.357377   1.409437   0.000000
     6  C    5.772212   4.718970   3.655915   2.358755   1.501506
     7  C    6.710171   5.523485   4.583892   3.297857   2.581467
     8  O    7.081583   5.994548   4.807469   3.638738   2.472325
     9  H    1.083041   2.105757   3.480276   4.347251   5.658795
    10  H    1.086047   2.108071   2.749149   3.805873   4.854215
    11  H    2.097358   1.087271   2.192311   2.659702   3.986597
    12  H    3.165735   2.136518   1.101279   2.060468   2.590376
    13  H    2.624777   2.141969   1.098660   2.073431   2.647454
    14  H    5.145528   4.004702   2.666341   2.077357   1.098891
    15  H    4.825205   4.000672   2.608758   2.068688   1.099794
    16  H    5.809323   4.910478   4.014967   2.692473   2.198120
    17  H    7.346805   6.192856   5.413555   4.053735   3.526136
    18  H    6.709480   5.438066   4.524244   3.419043   2.791804
                    6          7          8          9         10
     6  C    0.000000
     7  C    1.460315   0.000000
     8  O    1.424326   1.428915   0.000000
     9  H    6.634642   7.484353   7.977223   0.000000
    10  H    5.996817   7.096108   7.260274   1.847946   0.000000
    11  H    4.859431   5.403890   6.117441   2.443518   3.073539
    12  H    3.985382   4.694878   4.915551   4.080897   3.450179
    13  H    3.993514   5.139564   5.080763   3.705823   2.421633
    14  H    2.136026   2.689019   2.616845   6.092045   5.350818
    15  H    2.139803   3.417293   2.880917   5.857266   4.727268
    16  H    1.088070   2.197615   2.124201   6.624146   5.980067
    17  H    2.210552   1.085758   2.130227   8.038971   7.784982
    18  H    2.206028   1.086859   2.130929   7.458141   7.177193
                   11         12         13         14         15
    11  H    0.000000
    12  H    2.580407   0.000000
    13  H    3.088716   1.775118   0.000000
    14  H    4.233325   2.419146   3.076562   0.000000
    15  H    4.575491   2.919638   2.418777   1.775824   0.000000
    16  H    5.103451   4.585715   4.228215   3.085137   2.546765
    17  H    5.976917   5.623282   5.993195   3.753709   4.325932
    18  H    5.208251   4.401250   5.213906   2.497194   3.746340
                   16         17         18
    16  H    0.000000
    17  H    2.517754   0.000000
    18  H    3.119737   1.840039   0.000000
 Symmetry turned off by external request.
 Stoichiometry    C6H10O2
 Framework group  C1[X(C6H10O2)]
 Deg. of freedom    48
 Full point group                 C1      NOp   1
 Rotational constants (GHZ):           9.0143167           0.7243779           0.7047450
 Basis read from rwf:  (5D, 7F)
 Pseudo-potential data read from rwf file.
   194 basis functions,   326 primitive gaussians,   202 cartesian basis functions
    31 alpha electrons       31 beta electrons
       nuclear repulsion energy       360.2210177217 Hartrees.
 NAtoms=   18 NActive=   18 NUniq=   18 SFac= 1.00D+00 NAtFMM=   60 NAOKFM=F Big=F
 Integral buffers will be    131072 words long.
 Raffenetti 2 integral format.
 Two-electron integral symmetry is turned off.
 One-electron integrals computed using PRISM.
   1 Symmetry operations used in ECPInt.
 ECPInt:  NShTT=    2485 NPrTT=   10905 LenC2=    2355 LenP2D=    7559.
 LDataN:  DoStor=T MaxTD1= 4 Len=   56
 NBasis=   194 RedAO= T EigKep=  4.28D-05  NBF=   194
 NBsUse=   194 1.00D-06 EigRej= -1.00D+00 NBFU=   194
 Initial guess from the checkpoint file:  "AGE_opt_freq.chk"
 B after Tr=     0.007865   -0.001409   -0.029377
         Rot=    0.999999   -0.000998   -0.001126   -0.000153 Ang=  -0.17 deg.
 ExpMin= 4.38D-02 ExpMax= 5.48D+03 ExpMxC= 8.25D+02 IAcc=3 IRadAn=         5 AccDes= 0.00D+00
 Harris functional with IExCor=  402 and IRadAn=       5 diagonalized for initial guess.
 HarFok:  IExCor=  402 AccDes= 0.00D+00 IRadAn=         5 IDoV= 1 UseB2=F ITyADJ=14
 ICtDFT=  3500011 ScaDFX=  1.000000  1.000000  1.000000  1.000000
 FoFCou: FMM=F IPFlag=           0 FMFlag=      100000 FMFlg1=           0
         NFxFlg=           0 DoJE=T BraDBF=F KetDBF=T FulRan=T
         wScrn=  0.000000 ICntrl=       500 IOpCl=  0 I1Cent=   200000004 NGrid=           0
         NMat0=    1 NMatS0=      1 NMatT0=    0 NMatD0=    1 NMtDS0=    0 NMtDT0=    0
 Symmetry not used in FoFCou.
 Gradient too large for Newton-Raphson -- use scaled steepest descent instead.
     Minimum is close to point  4 DX=  5.20D-02 DF= -2.61D-06 DXR=  4.15D-02 DFR=  1.73D-03 which will be used.
 Gradient too large for Newton-Raphson -- use scaled steepest descent instead.
 Gradient too large for Newton-Raphson -- use scaled steepest descent instead.
     Accept linear search using points  1 and  2.
     Minimum is close to point  2 DX= -8.59D-02 DF= -1.54D-06 DXR=  9.39D-02 DFR=  8.90D-03 which will be used.
 Gradient too large for Newton-Raphson -- use scaled steepest descent instead.
     Accept linear search using points  1 and  2.
 LinEq1:  Iter=  0 NonCon=     1 RMS=1.74D-04 Max=5.91D-03 NDo=     1
 AX will form     1 AO Fock derivatives at one time.
 LinEq1:  Iter=  1 NonCon=     1 RMS=3.23D-05 Max=4.23D-04 NDo=     1
 LinEq1:  Iter=  2 NonCon=     1 RMS=1.53D-05 Max=2.31D-04 NDo=     1
 LinEq1:  Iter=  3 NonCon=     1 RMS=5.48D-06 Max=1.37D-04 NDo=     1
 LinEq1:  Iter=  4 NonCon=     1 RMS=4.06D-06 Max=8.55D-05 NDo=     1
 LinEq1:  Iter=  5 NonCon=     1 RMS=1.66D-06 Max=2.54D-05 NDo=     1
 LinEq1:  Iter=  6 NonCon=     1 RMS=7.38D-07 Max=6.47D-06 NDo=     1
 LinEq1:  Iter=  7 NonCon=     1 RMS=3.59D-07 Max=3.44D-06 NDo=     1
 LinEq1:  Iter=  8 NonCon=     1 RMS=2.34D-07 Max=2.47D-06 NDo=     1
 LinEq1:  Iter=  9 NonCon=     1 RMS=1.33D-07 Max=1.90D-06 NDo=     1
 LinEq1:  Iter= 10 NonCon=     1 RMS=5.74D-08 Max=1.20D-06 NDo=     1
 LinEq1:  Iter= 11 NonCon=     1 RMS=1.73D-08 Max=2.27D-07 NDo=     1
 LinEq1:  Iter= 12 NonCon=     0 RMS=8.09D-09 Max=9.46D-08 NDo=     1
 Linear equations converged to 1.005D-08 1.005D-07 after    12 iterations.
     Accept linear search using points  1 and  2.
     Minimum is close to point  2 DX= -1.41D-04 DF= -3.35D-12 DXR=  1.41D-04 DFR=  1.99D-08 which will be used.
 LinEq1:  Iter=  0 NonCon=     1 RMS=2.63D-07 Max=2.71D-06 NDo=     1
 LinEq1:  Iter=  1 NonCon=     1 RMS=1.28D-07 Max=1.85D-06 NDo=     1
 LinEq1:  Iter=  2 NonCon=     1 RMS=7.17D-08 Max=1.26D-06 NDo=     1
 LinEq1:  Iter=  3 NonCon=     1 RMS=4.72D-08 Max=8.27D-07 NDo=     1
 LinEq1:  Iter=  4 NonCon=     1 RMS=1.35D-08 Max=2.11D-07 NDo=     1
 LinEq1:  Iter=  5 NonCon=     1 RMS=8.71D-09 Max=1.40D-07 NDo=     1
 LinEq1:  Iter=  6 NonCon=     1 RMS=3.75D-09 Max=4.11D-08 NDo=     1
 LinEq1:  Iter=  7 NonCon=     1 RMS=2.09D-09 Max=2.80D-08 NDo=     1
 LinEq1:  Iter=  8 NonCon=     1 RMS=1.12D-09 Max=1.90D-08 NDo=     1
 LinEq1:  Iter=  9 NonCon=     1 RMS=6.73D-10 Max=1.50D-08 NDo=     1
 LinEq1:  Iter= 10 NonCon=     1 RMS=3.22D-10 Max=3.54D-09 NDo=     1
 LinEq1:  Iter= 11 NonCon=     0 RMS=1.31D-10 Max=1.48D-09 NDo=     1
 Linear equations converged to 2.900D-10 2.900D-09 after    11 iterations.
 SCF Done:  E(RB3LYP) =  -385.039386871     a.u. after    7 cycles
            Convg  =    0.9620D-10                    36 Fock formations.
              S**2 =  0.0000                  -V/T =  2.0066
 DoSCS=F DFT=T ScalE2(SS,OS)=  1.000000  1.000000
 Range of M.O.s used for correlation:     1   194
 NBasis=   194 NAE=    31 NBE=    31 NFC=     0 NFV=     0
 NROrb=    194 NOA=    31 NOB=    31 NVA=   163 NVB=   163

 **** Warning!!: The largest alpha MO coefficient is  0.42035122D+02

   1 Symmetry operations used in ECPInt.
 ECPInt:  NShTT=    2485 NPrTT=   10905 LenC2=    2355 LenP2D=    7559.
 LDataN:  DoStor=T MaxTD1= 5 Len=  102
 Symmetrizing basis deriv contribution to polar:
 IMax=3 JMax=2 DiffMx= 0.00D+00
 G2DrvN: will do    19 centers at a time, making    1 passes.
 Calling FoFCou, ICntrl=  3107 FMM=F I1Cent=   0 AccDes= 0.00D+00.
 End of G2Drv F.D. properties file   721 does not exist.
 End of G2Drv F.D. properties file   722 does not exist.
 End of G2Drv F.D. properties file   788 does not exist.
          IDoAtm=111111111111111111
          Differentiating once with respect to electric field.
                with respect to dipole field.
          Differentiating once with respect to nuclear coordinates.
 Keep R1 ints in memory in canonical form, NReq=244640429.
          There are    57 degrees of freedom in the 1st order CPHF.  IDoFFX=6 NUNeed=     3.
     54 vectors produced by pass  0 Test12= 8.86D-15 1.75D-09 XBig12= 7.28D+01 3.63D+00.
 AX will form    54 AO Fock derivatives at one time.
     54 vectors produced by pass  1 Test12= 8.86D-15 1.75D-09 XBig12= 1.09D+01 4.08D-01.
     54 vectors produced by pass  2 Test12= 8.86D-15 1.75D-09 XBig12= 1.31D-01 3.73D-02.
     54 vectors produced by pass  3 Test12= 8.86D-15 1.75D-09 XBig12= 3.93D-04 2.21D-03.
     54 vectors produced by pass  4 Test12= 8.86D-15 1.75D-09 XBig12= 5.38D-07 7.37D-05.
     30 vectors produced by pass  5 Test12= 8.86D-15 1.75D-09 XBig12= 4.69D-10 2.04D-06.
      3 vectors produced by pass  6 Test12= 8.86D-15 1.75D-09 XBig12= 3.26D-13 5.88D-08.
 InvSVY:  IOpt=1 It=  1 EMax= 6.22D-15
 Solved reduced A of dimension   303 with    57 vectors.
 Isotropic polarizability for W=    0.000000       79.13 Bohr**3.
 End of Minotr F.D. properties file   721 does not exist.
 End of Minotr F.D. properties file   722 does not exist.
 End of Minotr F.D. properties file   788 does not exist.
   1 Symmetry operations used in ECPInt.
 ECPInt:  NShTT=    2485 NPrTT=   10905 LenC2=    2355 LenP2D=    7559.
 LDataN:  DoStor=T MaxTD1= 6 Len=  172
 Calling FoFJK, ICntrl=    100127 FMM=F ISym2X=0 I1Cent= 0 IOpClX= 0 NMat=1 NMatS=1 NMatT=0.
 -------------------------------------------------------------------
 Center     Atomic                   Forces (Hartrees/Bohr)
 Number     Number              X              Y              Z
 -------------------------------------------------------------------
      1        6          -0.008901248   -0.002727658    0.002015169
      2        6           0.007109004    0.002632548   -0.003448069
      3        6          -0.000529990   -0.002715893    0.000964189
      4        8          -0.001609571    0.004102835   -0.003545766
      5        6           0.001608445   -0.001632275    0.002244060
      6        6          -0.006025207    0.000880513    0.000111351
      7        6           0.002453604    0.001082007   -0.006582545
      8        8           0.005985773    0.000806214    0.007714915
      9        1          -0.001774012   -0.000241711   -0.001337095
     10        1          -0.000822302   -0.000235663    0.001208591
     11        1           0.000490122    0.000176718   -0.001448795
     12        1           0.001575491   -0.001793282   -0.000192513
     13        1          -0.000742970   -0.000565195    0.002101604
     14        1           0.001578896   -0.001558977   -0.000225149
     15        1          -0.000452702   -0.000490613    0.002202455
     16        1          -0.001289985    0.001463582    0.000593795
     17        1           0.000373807    0.002077046   -0.001033031
     18        1           0.000972844   -0.001260196   -0.001343167
 -------------------------------------------------------------------
 Cartesian Forces:  Max     0.008901248 RMS     0.002852680

 GradGradGradGradGradGradGradGradGradGradGradGradGradGradGradGradGradGrad
 Berny optimization.
 Search for a local minimum.
 Step number   2 out of a maximum of   64
 All quantities printed in internal units (Hartrees-Bohrs-Radians)
 Second derivative matrix not updated -- analytic derivatives used.
 DE= -6.55D-04 DEPred=-6.87D-04 R= 9.53D-01
 TightC=F SS=  1.41D+00  RLast= 2.99D-01 DXNew= 5.0454D-01 8.9714D-01
 Trust test= 9.53D-01 RLast= 2.99D-01 DXMaxT set to 5.05D-01
 ITU=  1  0
     Eigenvalues ---   -0.00088  -0.00073   0.00021   0.00138   0.00163
     Eigenvalues ---    0.00838   0.01161   0.01433   0.02044   0.02741
     Eigenvalues ---    0.03799   0.04156   0.04574   0.05645   0.05991
     Eigenvalues ---    0.06366   0.07276   0.08206   0.09515   0.09691
     Eigenvalues ---    0.11486   0.12709   0.13210   0.13967   0.15081
     Eigenvalues ---    0.16199   0.17840   0.19050   0.21012   0.21504
     Eigenvalues ---    0.28247   0.29965   0.34239   0.42846   0.48736
     Eigenvalues ---    0.54692   0.60060   0.63264   0.68623   0.76089
     Eigenvalues ---    0.77115   0.81962   0.84120   0.89208   0.95011
     Eigenvalues ---    0.98135   1.13234   1.53656
 RFO step:  Lambda=-1.16908520D-03 EMin=-8.81153046D-04
 Quintic linear search produced a step of  1.16194.
 Maximum step size (   0.505) exceeded in Quadratic search.
    -- Step size scaled by   0.433
 B after Tr=    -0.008201    0.009547    0.025676
         Rot=    0.999999    0.000565    0.000911   -0.000139 Ang=   0.12 deg.
 Variable       Old X    -DE/DX   Delta X   Delta X   Delta X     New X
                                 (Linear)    (Quad)   (Total)
    X1      -20.13754  -0.00890  -0.00590  -0.02722  -0.03568 -20.17322
    Y1       -5.60028  -0.00273   0.05896  -0.08019  -0.01980  -5.62007
    Z1       -2.24658   0.00202  -0.02091   0.04425   0.01861  -2.22797
    X2      -17.75639   0.00711   0.03602  -0.06172  -0.02748 -17.78386
    Y2       -4.99982   0.00263  -0.04585   0.03968  -0.00467  -5.00449
    Z2       -2.74135  -0.00345  -0.01976   0.01325  -0.00759  -2.74894
    X3      -15.72518  -0.00053   0.01519  -0.01209  -0.00224 -15.72742
    Y3       -4.84515  -0.00272  -0.03190   0.01219  -0.01545  -4.86059
    Z3       -0.78981   0.00096   0.01035  -0.03286  -0.01999  -0.80980
    X4      -14.54208  -0.00161   0.01529  -0.01444  -0.00487 -14.54696
    Y4       -2.45056   0.00410  -0.02037   0.01603   0.00006  -2.45049
    Z4       -0.95174  -0.00355   0.01156  -0.03045  -0.01694  -0.96868
    X5      -12.49621   0.00161   0.01062   0.00050   0.00224 -12.49398
    Y5       -2.18001  -0.00163  -0.01377   0.01180   0.00492  -2.17510
    Z5        0.73205   0.00224   0.03144  -0.04438  -0.00755   0.72450
    X6      -11.49414  -0.00603   0.00324   0.00564  -0.00028 -11.49442
    Y6        0.46374   0.00088  -0.00201   0.01131   0.01618   0.47992
    Z6        0.49233   0.00011   0.04012  -0.06161  -0.01729   0.47504
    X7       -9.39329   0.00245  -0.05207   0.10643   0.04804  -9.34525
    Y7        1.05201   0.00108   0.02076  -0.01239   0.01398   1.06598
    Z7       -1.19756  -0.00658  -0.03862   0.05129   0.02012  -1.17744
    X8       -9.01536   0.00599   0.05322  -0.05374  -0.01170  -9.02706
    Y8        0.84808   0.00081  -0.01496   0.04416   0.03794   0.88602
    Z8        1.46833   0.00771  -0.04173   0.08160   0.04812   1.51644
    X9      -21.53948  -0.00177   0.00581  -0.05889  -0.05292 -21.59241
    Y9       -5.73657  -0.00024   0.05096  -0.06601  -0.01569  -5.75226
    Z9       -3.73142  -0.00134  -0.03557   0.07142   0.02868  -3.70275
   X10      -20.77188  -0.00082  -0.04754   0.03374  -0.01976 -20.79163
   Y10       -5.99090  -0.00024   0.14995  -0.18859  -0.03521  -6.02611
   Z10       -0.33422   0.00121  -0.00823   0.04144   0.02782  -0.30640
   X11      -17.16478   0.00049   0.07637  -0.12327  -0.04527 -17.21005
   Y11       -4.59198   0.00018  -0.13497   0.14526   0.00976  -4.58221
   Z11       -4.66625  -0.00145  -0.03379   0.01735  -0.01694  -4.68319
   X12      -14.30842   0.00158   0.02731  -0.01949   0.00352 -14.30490
   Y12       -6.33367  -0.00179  -0.03059   0.01555  -0.01079  -6.34447
   Z12       -1.11862  -0.00019   0.03605  -0.08874  -0.04590  -1.16453
   X13      -16.51361  -0.00074  -0.00991   0.03566   0.01701 -16.49660
   Y13       -5.13781  -0.00057  -0.02119  -0.01510  -0.03009  -5.16789
   Z13        1.10840   0.00210   0.00509  -0.01591  -0.00935   1.09905
   X14      -10.98347   0.00158   0.02222  -0.00959   0.00490 -10.97857
   Y14       -3.53575  -0.00156  -0.00585  -0.00096   0.00001  -3.53575
   Z14        0.30094  -0.00023   0.03424  -0.04589  -0.00197   0.29898
   X15      -13.11429  -0.00045  -0.00220   0.01191  -0.00266 -13.11695
   Y15       -2.52133  -0.00049  -0.02311   0.02680   0.01261  -2.50872
   Z15        2.68675   0.00220   0.02881  -0.03671  -0.00327   2.68348
   X16      -12.83764  -0.00129   0.01872  -0.02944  -0.02105 -12.85869
   Y16        1.95456   0.00146  -0.00288   0.01294   0.01703   1.97159
   Z16        0.93981   0.00059   0.11315  -0.17021  -0.05702   0.88278
   X17       -9.20007   0.00037  -0.07820   0.14306   0.05942  -9.14064
   Y17        2.94612   0.00208   0.03403  -0.02572   0.01310   2.95923
   Z17       -1.96228  -0.00103  -0.02139   0.02427   0.00858  -1.95370
   X18       -8.55105   0.00097  -0.08819   0.18089   0.08878  -8.46227
   Y18       -0.45172  -0.00126   0.03278  -0.03131   0.00609  -0.44563
   Z18       -2.31461  -0.00134  -0.09081   0.13193   0.05189  -2.26272
         Item               Value     Threshold  Converged?
 Maximum Force            0.008901     0.000015     NO 
 RMS     Force            0.002853     0.000010     NO 
 Maximum Displacement     0.088780     0.000060     NO 
 RMS     Displacement     0.027905     0.000040     NO 
 Predicted change in Energy=-5.093869D-04
 GradGradGradGradGradGradGradGradGradGradGradGradGradGradGradGradGradGrad

                          Input orientation:                          
 ---------------------------------------------------------------------
 Center     Atomic      Atomic             Coordinates (Angstroms)
 Number     Number       Type             X           Y           Z
 ---------------------------------------------------------------------
      1          6           0      -10.675209   -2.974014   -1.178990
      2          6           0       -9.410815   -2.648263   -1.454675
      3          6           0       -8.322593   -2.572115   -0.428528
      4          8           0       -7.697919   -1.296745   -0.512606
      5          6           0       -6.611527   -1.151012    0.383388
      6          6           0       -6.082588    0.253963    0.251383
      7          6           0       -4.945293    0.564094   -0.623074
      8          8           0       -4.776915    0.468861    0.802468
      9          1           0      -11.426210   -3.043963   -1.959408
     10          1           0      -11.002457   -3.188881   -0.162141
     11          1           0       -9.107164   -2.424803   -2.478239
     12          1           0       -7.569825   -3.357347   -0.616240
     13          1           0       -8.729623   -2.734732    0.581593
     14          1           0       -5.809611   -1.871036    0.158213
     15          1           0       -6.941191   -1.327557    1.420037
     16          1           0       -6.804525    1.043321    0.467148
     17          1           0       -4.837020    1.565955   -1.033856
     18          1           0       -4.478040   -0.235817   -1.197380
 ---------------------------------------------------------------------
                    Distance matrix (angstroms):
                    1          2          3          4          5
     1  C    0.000000
     2  C    1.334470   0.000000
     3  C    2.501903   1.497666   0.000000
     4  O    3.481603   2.376575   1.422622   0.000000
     5  C    4.719945   3.668276   2.367803   1.415730   0.000000
     6  C    5.792925   4.733989   3.669690   2.365940   1.507036
     7  C    6.757159   5.563424   4.613005   3.324436   2.594396
     8  O    7.111220   6.023636   4.830602   3.657738   2.483026
     9  H    1.085333   2.114983   3.492660   4.364191   5.679184
    10  H    1.089605   2.120433   2.762795   3.824000   4.871425
    11  H    2.109134   1.090790   2.199674   2.668745   4.004955
    12  H    3.179157   2.143599   1.103850   2.067179   2.604901
    13  H    2.634808   2.148927   1.101118   2.080742   2.652128
    14  H    5.165144   4.021711   2.674108   2.084589   1.101004
    15  H    4.838249   4.013387   2.621905   2.075739   1.102037
    16  H    5.816438   4.910595   4.022206   2.689606   2.204396
    17  H    7.397083   6.233484   5.444195   4.080624   3.541096
    18  H    6.775174   5.497124   4.563991   3.458628   2.808590
                    6          7          8          9         10
     6  C    0.000000
     7  C    1.467752   0.000000
     8  O    1.433407   1.438607   0.000000
     9  H    6.657193   7.536986   8.011306   0.000000
    10  H    6.019078   7.140485   7.284705   1.852225   0.000000
    11  H    4.875930   5.449433   6.155273   2.455711   3.088731
    12  H    4.000776   4.718678   4.944993   4.095609   3.466634
    13  H    4.006012   5.162812   5.092710   3.718050   2.434167
    14  H    2.144486   2.699503   2.637546   6.116066   5.367028
    15  H    2.145730   3.425822   2.879687   5.872146   4.739377
    16  H    1.091254   2.207938   2.133927   6.629784   5.994178
    17  H    2.219144   1.088205   2.139933   8.094777   7.834600
    18  H    2.216613   1.089959   2.141329   7.532824   7.236044
                   11         12         13         14         15
    11  H    0.000000
    12  H    2.588453   0.000000
    13  H    3.098575   1.779771   0.000000
    14  H    4.258097   2.430484   3.074359   0.000000
    15  H    4.592597   2.943069   2.425205   1.779899   0.000000
    16  H    5.099543   4.596226   4.241790   3.094960   2.558854
    17  H    6.020509   5.646373   6.021456   3.765617   4.338379
    18  H    5.278357   4.431796   5.242640   2.506922   3.756312
                   16         17         18
    16  H    0.000000
    17  H    2.529276   0.000000
    18  H    3.133589   1.844448   0.000000
 Symmetry turned off by external request.
 Stoichiometry    C6H10O2
 Framework group  C1[X(C6H10O2)]
 Deg. of freedom    48
 Full point group                 C1      NOp   1
 Rotational constants (GHZ):           8.9779137           0.7167854           0.6980102
 Basis read from rwf:  (5D, 7F)
 Pseudo-potential data read from rwf file.
   194 basis functions,   326 primitive gaussians,   202 cartesian basis functions
    31 alpha electrons       31 beta electrons
       nuclear repulsion energy       358.5868029016 Hartrees.
 NAtoms=   18 NActive=   18 NUniq=   18 SFac= 1.00D+00 NAtFMM=   60 NAOKFM=F Big=F
 Integral buffers will be    131072 words long.
 Raffenetti 2 integral format.
 Two-electron integral symmetry is turned off.
 One-electron integrals computed using PRISM.
   1 Symmetry operations used in ECPInt.
 ECPInt:  NShTT=    2485 NPrTT=   10905 LenC2=    2352 LenP2D=    7547.
 LDataN:  DoStor=T MaxTD1= 4 Len=   56
 NBasis=   194 RedAO= T EigKep=  4.39D-05  NBF=   194
 NBsUse=   194 1.00D-06 EigRej= -1.00D+00 NBFU=   194
 Initial guess from the checkpoint file:  "AGE_opt_freq.chk"
 B after Tr=    -0.005343    0.011344    0.024137
         Rot=    1.000000    0.000441    0.000859   -0.000249 Ang=   0.11 deg.
 ExpMin= 4.38D-02 ExpMax= 5.48D+03 ExpMxC= 8.25D+02 IAcc=3 IRadAn=         5 AccDes= 0.00D+00
 Harris functional with IExCor=  402 and IRadAn=       5 diagonalized for initial guess.
 HarFok:  IExCor=  402 AccDes= 0.00D+00 IRadAn=         5 IDoV= 1 UseB2=F ITyADJ=14
 ICtDFT=  3500011 ScaDFX=  1.000000  1.000000  1.000000  1.000000
 FoFCou: FMM=F IPFlag=           0 FMFlag=      100000 FMFlg1=           0
         NFxFlg=           0 DoJE=T BraDBF=F KetDBF=T FulRan=T
         wScrn=  0.000000 ICntrl=       500 IOpCl=  0 I1Cent=   200000004 NGrid=           0
         NMat0=    1 NMatS0=      1 NMatT0=    0 NMatD0=    1 NMtDS0=    0 NMtDT0=    0
 Symmetry not used in FoFCou.
 Gradient too large for Newton-Raphson -- use scaled steepest descent instead.
     Accept linear search using points  3 and  4.
 Gradient too large for Newton-Raphson -- use scaled steepest descent instead.
     Accept linear search using points  2 and  3.
 Gradient too large for Newton-Raphson -- use scaled steepest descent instead.
     Minimum is close to point  2 DX=  5.56D-03 DF= -2.08D-09 DXR=  6.14D-03 DFR=  3.77D-05 which will be used.
 LinEq1:  Iter=  0 NonCon=     1 RMS=9.32D-05 Max=1.47D-03 NDo=     1
 AX will form     1 AO Fock derivatives at one time.
 LinEq1:  Iter=  1 NonCon=     1 RMS=5.09D-05 Max=7.92D-04 NDo=     1
 LinEq1:  Iter=  2 NonCon=     1 RMS=1.66D-05 Max=1.91D-04 NDo=     1
 LinEq1:  Iter=  3 NonCon=     1 RMS=1.05D-05 Max=1.31D-04 NDo=     1
 LinEq1:  Iter=  4 NonCon=     1 RMS=5.68D-06 Max=9.33D-05 NDo=     1
 LinEq1:  Iter=  5 NonCon=     1 RMS=3.31D-06 Max=5.46D-05 NDo=     1
 LinEq1:  Iter=  6 NonCon=     1 RMS=1.34D-06 Max=3.49D-05 NDo=     1
 LinEq1:  Iter=  7 NonCon=     1 RMS=9.18D-07 Max=1.70D-05 NDo=     1
 LinEq1:  Iter=  8 NonCon=     1 RMS=3.64D-07 Max=3.86D-06 NDo=     1
 LinEq1:  Iter=  9 NonCon=     1 RMS=1.90D-07 Max=2.01D-06 NDo=     1
 LinEq1:  Iter= 10 NonCon=     1 RMS=6.08D-08 Max=6.08D-07 NDo=     1
 LinEq1:  Iter= 11 NonCon=     1 RMS=2.88D-08 Max=3.50D-07 NDo=     1
 LinEq1:  Iter= 12 NonCon=     1 RMS=1.12D-08 Max=1.22D-07 NDo=     1
 LinEq1:  Iter= 13 NonCon=     0 RMS=2.83D-09 Max=2.29D-08 NDo=     1
 Linear equations converged to 1.005D-08 1.005D-07 after    13 iterations.
     Minimum is close to point  2 DX=  2.47D-04 DF= -3.75D-12 DXR=  2.47D-04 DFR=  6.21D-08 which will be used.
 LinEq1:  Iter=  0 NonCon=     1 RMS=9.62D-08 Max=1.31D-06 NDo=     1
 LinEq1:  Iter=  1 NonCon=     1 RMS=8.63D-08 Max=8.97D-07 NDo=     1
 LinEq1:  Iter=  2 NonCon=     1 RMS=2.81D-08 Max=2.32D-07 NDo=     1
 LinEq1:  Iter=  3 NonCon=     1 RMS=1.65D-08 Max=1.56D-07 NDo=     1
 LinEq1:  Iter=  4 NonCon=     1 RMS=8.31D-09 Max=9.34D-08 NDo=     1
 LinEq1:  Iter=  5 NonCon=     1 RMS=5.13D-09 Max=6.74D-08 NDo=     1
 LinEq1:  Iter=  6 NonCon=     1 RMS=2.14D-09 Max=6.01D-08 NDo=     1
 LinEq1:  Iter=  7 NonCon=     1 RMS=1.45D-09 Max=2.32D-08 NDo=     1
 LinEq1:  Iter=  8 NonCon=     1 RMS=4.04D-10 Max=5.40D-09 NDo=     1
 LinEq1:  Iter=  9 NonCon=     1 RMS=2.25D-10 Max=2.40D-09 NDo=     1
 LinEq1:  Iter= 10 NonCon=     1 RMS=8.22D-11 Max=8.67D-10 NDo=     1
 LinEq1:  Iter= 11 NonCon=     0 RMS=3.38D-11 Max=3.19D-10 NDo=     1
 Linear equations converged to 7.567D-11 7.567D-10 after    11 iterations.
 SCF Done:  E(RB3LYP) =  -385.039883050     a.u. after    6 cycles
            Convg  =    0.3593D-10                    37 Fock formations.
              S**2 =  0.0000                  -V/T =  2.0070
 DoSCS=F DFT=T ScalE2(SS,OS)=  1.000000  1.000000
 Range of M.O.s used for correlation:     1   194
 NBasis=   194 NAE=    31 NBE=    31 NFC=     0 NFV=     0
 NROrb=    194 NOA=    31 NOB=    31 NVA=   163 NVB=   163

 **** Warning!!: The largest alpha MO coefficient is  0.39425738D+02

   1 Symmetry operations used in ECPInt.
 ECPInt:  NShTT=    2485 NPrTT=   10905 LenC2=    2352 LenP2D=    7547.
 LDataN:  DoStor=T MaxTD1= 5 Len=  102
 Symmetrizing basis deriv contribution to polar:
 IMax=3 JMax=2 DiffMx= 0.00D+00
 G2DrvN: will do    19 centers at a time, making    1 passes.
 Calling FoFCou, ICntrl=  3107 FMM=F I1Cent=   0 AccDes= 0.00D+00.
 End of G2Drv F.D. properties file   721 does not exist.
 End of G2Drv F.D. properties file   722 does not exist.
 End of G2Drv F.D. properties file   788 does not exist.
          IDoAtm=111111111111111111
          Differentiating once with respect to electric field.
                with respect to dipole field.
          Differentiating once with respect to nuclear coordinates.
 Keep R1 ints in memory in canonical form, NReq=244640429.
          There are    57 degrees of freedom in the 1st order CPHF.  IDoFFX=6 NUNeed=     3.
     54 vectors produced by pass  0 Test12= 8.86D-15 1.75D-09 XBig12= 7.44D+01 3.83D+00.
 AX will form    54 AO Fock derivatives at one time.
     54 vectors produced by pass  1 Test12= 8.86D-15 1.75D-09 XBig12= 1.14D+01 4.03D-01.
     54 vectors produced by pass  2 Test12= 8.86D-15 1.75D-09 XBig12= 1.36D-01 3.78D-02.
     54 vectors produced by pass  3 Test12= 8.86D-15 1.75D-09 XBig12= 4.10D-04 2.24D-03.
     54 vectors produced by pass  4 Test12= 8.86D-15 1.75D-09 XBig12= 5.60D-07 7.36D-05.
     30 vectors produced by pass  5 Test12= 8.86D-15 1.75D-09 XBig12= 4.88D-10 2.18D-06.
      3 vectors produced by pass  6 Test12= 8.86D-15 1.75D-09 XBig12= 3.40D-13 6.21D-08.
 InvSVY:  IOpt=1 It=  1 EMax= 1.78D-15
 Solved reduced A of dimension   303 with    57 vectors.
 Isotropic polarizability for W=    0.000000       79.87 Bohr**3.
 End of Minotr F.D. properties file   721 does not exist.
 End of Minotr F.D. properties file   722 does not exist.
 End of Minotr F.D. properties file   788 does not exist.
   1 Symmetry operations used in ECPInt.
 ECPInt:  NShTT=    2485 NPrTT=   10905 LenC2=    2352 LenP2D=    7547.
 LDataN:  DoStor=T MaxTD1= 6 Len=  172
 Calling FoFJK, ICntrl=    100127 FMM=F ISym2X=0 I1Cent= 0 IOpClX= 0 NMat=1 NMatS=1 NMatT=0.
 -------------------------------------------------------------------
 Center     Atomic                   Forces (Hartrees/Bohr)
 Number     Number              X              Y              Z
 -------------------------------------------------------------------
      1        6          -0.000913590   -0.000713640    0.000782745
      2        6           0.000274631    0.000634956   -0.001089590
      3        6          -0.000179218   -0.000952428    0.000244616
      4        8          -0.000429046    0.001185952   -0.000994486
      5        6           0.000525489   -0.000500776    0.000711500
      6        6          -0.000670035    0.000895139   -0.000273032
      7        6           0.000390169   -0.000185079   -0.000797984
      8        8           0.000738400    0.000366075    0.000852772
      9        1          -0.000516781   -0.000048505   -0.000271488
     10        1           0.000371976    0.000299924   -0.001041649
     11        1          -0.000477648   -0.000339992    0.000892417
     12        1           0.000293005   -0.000438042    0.000008148
     13        1          -0.000158720   -0.000173324    0.000402189
     14        1           0.000419892   -0.000430049   -0.000032428
     15        1          -0.000087887   -0.000142878    0.000592680
     16        1           0.000376885   -0.000103469   -0.000013802
     17        1           0.000149516    0.000486369   -0.000108501
     18        1          -0.000107036    0.000159766    0.000135892
 -------------------------------------------------------------------
 Cartesian Forces:  Max     0.001185952 RMS     0.000549426

 GradGradGradGradGradGradGradGradGradGradGradGradGradGradGradGradGradGrad
 Berny optimization.
 Search for a local minimum.
 Step number   3 out of a maximum of   64
 All quantities printed in internal units (Hartrees-Bohrs-Radians)
 Second derivative matrix not updated -- analytic derivatives used.
 DE= -4.96D-04 DEPred=-5.09D-04 R= 9.74D-01
 TightC=F SS=  1.41D+00  RLast= 2.05D-01 DXNew= 8.4853D-01 6.1517D-01
 Trust test= 9.74D-01 RLast= 2.05D-01 DXMaxT set to 6.15D-01
 ITU=  1  1  0
     Eigenvalues ---    0.00024   0.00041   0.00093   0.00236   0.00284
     Eigenvalues ---    0.00932   0.01217   0.01499   0.02073   0.02767
     Eigenvalues ---    0.03807   0.04206   0.04632   0.05624   0.05988
     Eigenvalues ---    0.06376   0.07278   0.08231   0.09482   0.09768
     Eigenvalues ---    0.11487   0.12758   0.13160   0.13936   0.15135
     Eigenvalues ---    0.16122   0.17767   0.19060   0.21053   0.21571
     Eigenvalues ---    0.27441   0.29051   0.33743   0.41838   0.47442
     Eigenvalues ---    0.52611   0.58711   0.61743   0.67131   0.73808
     Eigenvalues ---    0.75658   0.80913   0.82834   0.87889   0.93682
     Eigenvalues ---    0.96980   1.09381   1.47241
 RFO step:  Lambda=-6.21624318D-05 EMin= 2.42578054D-04
 Quintic linear search produced a step of  0.17100.
 B after Tr=     0.000383   -0.001315   -0.002498
         Rot=    1.000000    0.000053   -0.000091    0.000065 Ang=   0.01 deg.
 Variable       Old X    -DE/DX   Delta X   Delta X   Delta X     New X
                                 (Linear)    (Quad)   (Total)
    X1      -20.17322  -0.00091  -0.00610  -0.01240  -0.01926 -20.19248
    Y1       -5.62007  -0.00071  -0.00339  -0.02470  -0.02701  -5.64709
    Z1       -2.22797   0.00078   0.00318  -0.01441  -0.00947  -2.23744
    X2      -17.78386   0.00027  -0.00470  -0.01630  -0.02177 -17.80563
    Y2       -5.00449   0.00063  -0.00080   0.00459   0.00451  -4.99999
    Z2       -2.74894  -0.00109  -0.00130   0.00938   0.00935  -2.73959
    X3      -15.72742  -0.00018  -0.00038  -0.02356  -0.02433 -15.75175
    Y3       -4.86059  -0.00095  -0.00264   0.00891   0.00691  -4.85368
    Z3       -0.80980   0.00024  -0.00342   0.01948   0.01693  -0.79287
    X4      -14.54696  -0.00043  -0.00083  -0.00220  -0.00315 -14.55011
    Y4       -2.45049   0.00119   0.00001   0.00086   0.00135  -2.44914
    Z4       -0.96868  -0.00099  -0.00290   0.00126  -0.00124  -0.96993
    X5      -12.49398   0.00053   0.00038   0.01708   0.01769 -12.47629
    Y5       -2.17510  -0.00050   0.00084  -0.00740  -0.00618  -2.18127
    Z5        0.72450   0.00071  -0.00129  -0.01583  -0.01713   0.70737
    X6      -11.49442  -0.00067  -0.00005   0.01245   0.01293 -11.48149
    Y6        0.47992   0.00090   0.00277  -0.00156   0.00143   0.48135
    Z6        0.47504  -0.00027  -0.00296  -0.00942  -0.01284   0.46220
    X7       -9.34525   0.00039   0.00822   0.01846   0.02699  -9.31826
    Y7        1.06598  -0.00019   0.00239   0.01711   0.01927   1.08526
    Z7       -1.17744  -0.00080   0.00344   0.00623   0.00875  -1.16869
    X8       -9.02706   0.00074  -0.00200   0.00459   0.00336  -9.02370
    Y8        0.88602   0.00037   0.00649   0.00596   0.01247   0.89849
    Z8        1.51644   0.00085   0.00823   0.00583   0.01310   1.52955
    X9      -21.59241  -0.00052  -0.00905  -0.00051  -0.01060 -21.60301
    Y9       -5.75226  -0.00005  -0.00268  -0.03336  -0.03494  -5.78720
    Z9       -3.70275  -0.00027   0.00490  -0.02596  -0.01902  -3.72177
   X10      -20.79163   0.00037  -0.00338  -0.02221  -0.02605 -20.81768
   Y10       -6.02611   0.00030  -0.00602  -0.03459  -0.03925  -6.06536
   Z10       -0.30640  -0.00104   0.00476  -0.02426  -0.01759  -0.32399
   X11      -17.21005  -0.00048  -0.00774  -0.00980  -0.01860 -17.22864
   Y11       -4.58221  -0.00034   0.00167   0.01171   0.01381  -4.56840
   Z11       -4.68319   0.00089  -0.00290   0.01718   0.01539  -4.66780
   X12      -14.30490   0.00029   0.00060  -0.03404  -0.03408 -14.33898
   Y12       -6.34447  -0.00044  -0.00185  -0.00636  -0.00778  -6.35224
   Z12       -1.16453   0.00001  -0.00785   0.03880   0.03173  -1.13280
   X13      -16.49660  -0.00016   0.00291  -0.03328  -0.03046 -16.52705
   Y13       -5.16789  -0.00017  -0.00514   0.03183   0.02764  -5.14025
   Z13        1.09905   0.00040  -0.00160   0.01956   0.01901   1.11806
   X14      -10.97857   0.00042   0.00084   0.01295   0.01376 -10.96481
   Y14       -3.53575  -0.00043   0.00000  -0.00642  -0.00628  -3.54203
   Z14        0.29898  -0.00003  -0.00034  -0.03746  -0.03794   0.26104
   X15      -13.11695  -0.00009  -0.00045   0.03695   0.03703 -13.07992
   Y15       -2.50872  -0.00014   0.00216  -0.01645  -0.01362  -2.52234
   Z15        2.68348   0.00059  -0.00056  -0.01025  -0.01067   2.67281
   X16      -12.85869   0.00038  -0.00360   0.00804   0.00523 -12.85345
   Y16        1.97159  -0.00010   0.00291  -0.00852  -0.00516   1.96644
   Z16        0.88278  -0.00001  -0.00975  -0.00920  -0.01933   0.86345
   X17       -9.14064   0.00015   0.01016   0.01479   0.02537  -9.11527
   Y17        2.95923   0.00049   0.00224   0.02283   0.02473   2.98396
   Z17       -1.95370  -0.00011   0.00147   0.01765   0.01795  -1.93575
   X18       -8.46227  -0.00011   0.01518   0.03082   0.04592  -8.41635
   Y18       -0.44563   0.00016   0.00104   0.02751   0.02809  -0.41753
   Z18       -2.26272   0.00014   0.00887   0.00507   0.01301  -2.24971
         Item               Value     Threshold  Converged?
 Maximum Force            0.001186     0.000015     NO 
 RMS     Force            0.000549     0.000010     NO 
 Maximum Displacement     0.045923     0.000060     NO 
 RMS     Displacement     0.020591     0.000040     NO 
 Predicted change in Energy=-4.388840D-05
 GradGradGradGradGradGradGradGradGradGradGradGradGradGradGradGradGradGrad

                          Input orientation:                          
 ---------------------------------------------------------------------
 Center     Atomic      Atomic             Coordinates (Angstroms)
 Number     Number       Type             X           Y           Z
 ---------------------------------------------------------------------
      1          6           0      -10.685401   -2.988310   -1.184000
      2          6           0       -9.422333   -2.645879   -1.449729
      3          6           0       -8.335470   -2.568456   -0.419568
      4          8           0       -7.699584   -1.296031   -0.513263
      5          6           0       -6.602166   -1.154280    0.374323
      6          6           0       -6.075743    0.254722    0.244586
      7          6           0       -4.931010    0.574294   -0.618444
      8          8           0       -4.775136    0.475459    0.809402
      9          1           0      -11.431819   -3.062454   -1.969474
     10          1           0      -11.016244   -3.209653   -0.171447
     11          1           0       -9.117005   -2.417495   -2.470094
     12          1           0       -7.587862   -3.361463   -0.599449
     13          1           0       -8.745740   -2.720105    0.591651
     14          1           0       -5.802330   -1.874360    0.138139
     15          1           0       -6.921596   -1.334764    1.414392
     16          1           0       -6.801755    1.040593    0.456918
     17          1           0       -4.823593    1.579042   -1.024357
     18          1           0       -4.453738   -0.220950   -1.190493
 ---------------------------------------------------------------------
                    Distance matrix (angstroms):
                    1          2          3          4          5
     1  C    0.000000
     2  C    1.335370   0.000000
     3  C    2.506554   1.499499   0.000000
     4  O    3.496970   2.380530   1.425551   0.000000
     5  C    4.739710   3.674966   2.373710   1.418531   0.000000
     6  C    5.814384   4.741714   3.676656   2.369816   1.509715
     7  C    6.791540   5.588606   4.637539   3.342780   2.601214
     8  O    7.134605   6.036792   4.842702   3.666063   2.486641
     9  H    1.086097   2.117004   3.497660   4.378399   5.697373
    10  H    1.087986   2.119528   2.767535   3.844349   4.899644
    11  H    2.107068   1.089279   2.199600   2.663822   4.001354
    12  H    3.174223   2.144835   1.104597   2.070246   2.606047
    13  H    2.643323   2.151864   1.101764   2.084050   2.663447
    14  H    5.180089   4.027529   2.685071   2.087669   1.101833
    15  H    4.863341   4.021927   2.623823   2.079091   1.102884
    16  H    5.831584   4.908442   4.018176   2.684615   2.205476
    17  H    7.432831   6.259337   5.468161   4.098608   3.548334
[...]
 98113,-0.1689763,0.1080864,-0.0052048,-0.0229829,-0.1219203,-0.041655,
 -0.0094037,-0.0395879,0.0246312,-0.0293017,-0.0480798,0.0594907,-0.060
 2826,-0.0284933,-0.0239422,0.0587335,0.0632979,-0.1578617,-0.1326817,0
 .045742,-0.0099598,0.100029,-0.0728233,-0.0100389,0.0161523,-0.0876193
 ,-0.0051544,-0.0606824,-0.0710333,0.086249,-0.0455353,0.0016579,0.0485
 794,-0.0170447,0.0050545,-0.1813699,-0.0754168,0.0410975,0.0162874,0.0
 442125,-0.0726297,-0.0098604,0.059293,-0.0114143,0.0626232,0.0521359,-
 0.0239916,0.039074,-0.029353,-0.0955285,0.0818806,0.0355475,0.0461472,
 -0.0048898,0.0572861,0.0377111,0.0621347,0.0678077,-0.0510259,-0.06718
 11,0.0455276,-0.0209307,-0.0302595\Polar=97.6292387,15.8148024,72.2710
 821,1.3317611,-0.4473062,70.146667\Quadrupole=4.3181452,-0.8634691,-3.
 4546761,7.0166248,0.6983165,-1.2011472\PG=C01 [X(C6H10O2)]\NImag=0\\0.
 80477331,0.17405228,0.16192431,-0.01693240,-0.08003203,0.63869579,-0.5
 0753586,-0.12663334,0.08474472,0.78949932,-0.12600494,-0.08379299,0.03
 249192,0.16762862,0.20651812,0.08541246,0.03271521,-0.13105560,-0.0718
 7137,-0.09178044,0.60368025,-0.02575434,-0.00268867,-0.02041912,-0.149
 18374,0.00645292,-0.06898824,0.52983717,-0.00617423,0.00472128,-0.0038
 4705,-0.00086541,-0.07002861,0.00086910,-0.04274314,0.45274914,0.00123
 841,0.00009410,0.00941918,-0.06758444,0.00845367,-0.16623074,-0.016550
 50,-0.00523236,0.57881689,-0.00139980,-0.00025852,-0.00436576,-0.02135
 253,-0.03434394,0.00017653,-0.08898008,-0.06441256,0.00524432,0.317008
 76,0.00110076,0.00003130,-0.00131224,-0.01353274,-0.00755967,-0.004460
 97,-0.02986782,-0.18535572,0.03783286,0.11661210,0.34108018,-0.0020609
 5,0.00004134,-0.00274566,-0.01365574,-0.02603769,0.00486502,-0.0104924
 6,0.00761023,-0.07879614,0.13728106,-0.02260486,0.22546621,0.00108553,
 -0.00007459,-0.00027892,-0.00212147,-0.00095249,0.00009268,-0.02530823
 ,-0.01078547,-0.01325191,-0.15341306,-0.02105413,-0.06773082,0.5176073
 2,-0.00084805,0.00018364,-0.00137877,-0.00245891,-0.00565284,0.0017796
 8,-0.03266770,-0.01095683,-0.02657155,0.00920575,-0.08717960,0.0193664
 3,-0.02993502,0.55388797,0.00092520,-0.00006208,0.00092223,-0.00044407
 ,0.00124706,-0.00134145,-0.00249182,-0.00609119,-0.00363870,-0.0835775
 2,-0.00848603,-0.13225540,-0.05601004,-0.00807692,0.53131462,-0.000233
 39,0.00008133,-0.00010951,0.00020627,-0.00107389,0.00017655,-0.0034817
 9,-0.00022497,-0.00209047,-0.02169424,-0.03019153,-0.00579730,-0.07785
 604,-0.02587137,0.01757768,0.63455980,0.00027415,-0.00002895,0.0003701
 6,0.00032005,0.00123027,-0.00025151,0.00059708,-0.00238849,0.00152706,
 -0.00477707,0.00107461,-0.00517021,-0.03010809,-0.21735786,0.01956851,
 -0.02983319,0.58438816,-0.00023103,0.00004398,-0.00037797,-0.00068279,
 -0.00112101,0.00094798,-0.00219957,0.00025040,-0.00351451,-0.01524917,
 -0.02543068,-0.00091321,0.01418733,0.02215907,-0.07559518,-0.12700136,
 0.00642042,0.30727402,0.00002691,0.00003961,0.00005295,-0.00001888,0.0
 0006513,-0.00003816,-0.00024339,-0.00086007,-0.00055625,0.00038737,0.0
 0102008,-0.00025450,-0.00914203,-0.00612178,0.00683610,-0.18293720,-0.
 03161905,0.11619646,0.37362371,0.00001540,0.00000010,0.00001617,0.0001
 0178,0.00004239,-0.00013050,-0.00013714,-0.00023096,0.00003277,0.00197
 177,0.00245117,-0.00109572,-0.01245329,-0.00490865,0.03238908,-0.03689
 474,-0.07124697,0.02274739,-0.03675322,0.64977192,-0.00003427,-0.00001
 198,-0.00008790,-0.00004278,-0.00018226,0.00012724,-0.00006241,0.00054
 937,-0.00011469,-0.00155335,-0.00221532,0.00016828,-0.00140296,0.00166
 185,-0.00490540,0.17106629,0.03611011,-0.09463511,-0.20282164,-0.02956
 885,0.50469559,-0.00010936,-0.00008721,-0.00031278,-0.00023281,-0.0007
 3807,0.00034414,0.00043165,0.00263809,-0.00123212,-0.00116240,-0.00820
 956,0.00273358,-0.02108389,-0.00212052,-0.01620293,-0.18614194,-0.0198
 7107,-0.05183080,-0.02529993,0.01169245,-0.04932146,0.24818360,-0.0002
 3012,-0.00000411,-0.00033198,-0.00021793,-0.00088230,0.00049994,-0.000
 60964,0.00222896,-0.00149151,-0.00676148,-0.00971875,0.00095215,-0.023
 01635,0.00543175,-0.02613904,-0.01229454,-0.06500934,-0.00876636,0.007
 30495,-0.06062181,0.00383659,0.02323090,0.09889302,-0.00000638,-0.0000
 5117,-0.00002416,0.00001260,-0.00001487,-0.00007726,0.00021752,0.00091
 281,0.00064333,0.00100467,-0.00036594,0.00207172,0.00144488,0.00085546
 ,0.00055731,-0.09661633,-0.02036641,-0.06005360,-0.00415277,0.01303440
 ,-0.21708007,0.10834094,0.00207166,0.31523861,-0.18575561,-0.01694900,
 -0.14037873,-0.01754747,-0.00159787,-0.02421655,-0.00065116,-0.0038684
 1,0.00338860,-0.00184819,-0.00030395,-0.00130233,0.00016248,-0.0004837
 6,0.00041833,-0.00006683,0.00019018,-0.00011576,0.00002757,0.00000720,
 -0.00003253,-0.00013182,-0.00014241,-0.00002422,0.19684550,-0.01734867
 ,-0.03817551,-0.00910803,-0.00415584,0.00323743,-0.00660583,-0.0059691
 3,0.01218592,0.00123471,0.00241706,0.00018650,0.00156038,0.00006913,0.
 00044615,-0.00024141,0.00013918,-0.00012286,0.00010143,-0.00001330,-0.
 00000449,0.00002337,0.00008141,0.00008580,0.00001206,0.02068660,0.0271
 9522,-0.14480196,-0.01059151,-0.21070366,0.00783675,0.00101991,0.00815
 907,0.00065475,0.00216586,-0.00015380,0.00026776,-0.00004881,0.0005570
 2,0.00013487,0.00016586,0.00002049,0.00003485,0.00000287,0.00003749,0.
 00000644,0.00000042,0.00000236,0.00000333,0.00000595,-0.00000781,0.154
 36596,0.01096107,0.21477920,-0.07954978,-0.02101023,0.07230606,-0.0050
 9860,-0.00698903,0.02949946,0.00048010,0.00167160,0.00278894,0.0006672
 7,0.00033537,-0.00039271,-0.00006029,0.00009181,-0.00010163,0.00002224
 ,-0.00005285,0.00002857,-0.00000417,0.00000828,0.00001350,0.00002096,0
 .00003598,-0.00001314,0.00824396,0.00412742,-0.01840219,0.07962543,-0.
 02171945,-0.04865839,0.05497031,-0.00353846,0.00396128,0.00937056,0.00
 327771,-0.00740503,-0.00026985,-0.00106677,-0.00015453,-0.00078598,-0.
 00019659,-0.00025168,0.00023526,-0.00012251,0.00010152,-0.00005499,-0.
 00000931,0.00001068,-0.00000261,-0.00000603,-0.00006347,0.00000019,0.0
 0030363,0.00279626,-0.00220146,0.02559799,0.03866069,0.07585112,0.0560
 4711,-0.30079051,0.00093993,0.00190014,-0.00430526,-0.00117179,-0.0016
 3818,0.00086899,-0.00023288,-0.00006668,0.00001311,-0.00004848,0.00000
 800,0.00000895,-0.00000464,-0.00001593,-0.00002279,-0.00001071,0.00000
 052,-0.00000564,0.00002413,0.00000904,0.00002927,0.00782611,0.00460299
 ,-0.01436128,-0.08436431,-0.06252647,0.31607162,-0.00605695,-0.0072412
 7,0.03015242,-0.07596364,-0.01838272,0.06861400,0.00756620,0.00420407,
 -0.02321299,0.00122304,0.00084976,0.00149876,-0.00009731,-0.00002368,-
 0.00016763,0.00001798,-0.00000897,0.00008131,0.00001466,-0.00007250,-0
 .00002149,-0.00000189,0.00002582,0.00002687,0.00063431,0.00194214,0.00
 009446,-0.00393530,-0.00390287,0.00043280,0.07898883,-0.00214595,0.004
 37295,0.00833629,-0.01846316,-0.05304317,0.05696019,-0.00142689,0.0023
 1168,-0.00067380,0.00128579,0.00107785,0.00017335,-0.00015620,0.000045
 81,-0.00021398,-0.00002157,-0.00006736,-0.00001168,-0.00005265,0.00000
 286,0.00002798,0.00012272,0.00004687,0.00006381,0.00191510,-0.00699985
 ,-0.00123828,-0.00367842,0.01047164,0.00152638,0.02322314,0.04074526,0
 .00000043,0.00123487,-0.00260015,0.07064270,0.05737726,-0.29918691,0.0
 0785686,0.00554002,-0.01883000,0.00056060,-0.00012621,0.00175738,-0.00
 013820,-0.00032489,0.00018201,-0.00003966,0.00005434,-0.00002679,-0.00
 001335,-0.00004893,-0.00002637,-0.00000585,-0.00003685,0.00006430,0.00
 047035,-0.00136057,0.00099307,-0.00002298,0.00184880,0.00161961,-0.075
 65663,-0.06447613,0.31692305,-0.00081137,0.00024377,-0.00335785,-0.019
 16672,0.01369433,0.00416053,-0.16582274,0.11797112,0.03182333,0.010788
 24,-0.01647055,-0.00432601,0.00433635,-0.00264801,0.00016311,0.0004257
 8,-0.00023521,0.00007607,-0.00001479,0.00000837,0.00002710,-0.00003681
 ,0.00014309,0.00000774,-0.00009583,-0.00208360,-0.00033090,-0.00024741
 ,0.00133858,0.00008105,0.00073782,-0.00035572,-0.00046038,0.17751186,-
 0.00061243,-0.00001088,0.00016527,0.00001539,0.00411713,0.00077431,0.1
 1210047,-0.15212597,-0.02929130,0.00712177,-0.04588283,-0.00527485,0.0
 0565788,0.00094453,0.00351741,-0.00030622,0.00045863,0.00006647,0.0001
 8100,-0.00001810,-0.00015985,-0.00048892,-0.00021887,-0.00008217,0.000
 27550,-0.00057983,-0.00015310,-0.00014604,0.00025066,0.00003555,0.0002
 6532,0.00001722,0.00012888,-0.12178174,0.18791247,-0.00092204,0.000057
 48,-0.00190208,-0.01785164,0.01505164,0.00571110,0.03028316,-0.0275743
 4,-0.06284821,-0.00381261,0.00315346,0.00475510,0.00124278,-0.00085843
 ,0.00047003,-0.00015246,0.00005430,-0.00004843,0.00000529,0.00005321,0
 .00003139,-0.00004980,-0.00002425,-0.00007380,-0.00015437,-0.00160319,
 0.00002648,-0.00030526,0.00033437,0.00019953,0.00093009,-0.00031644,0.
 00046171,-0.03116330,0.03147952,0.05859556,0.00129031,0.00061723,-0.00
 114019,0.00836688,0.00288574,-0.02319052,-0.08432164,-0.00634319,0.082
 54161,-0.00910723,-0.01372584,0.01077481,0.00239571,0.00020538,0.00461
 284,-0.00001887,0.00002172,-0.00032458,0.00013437,0.00026042,-0.000079
 54,-0.00020702,-0.00020692,-0.00019199,0.00024316,-0.00000242,0.000140
 25,-0.00015402,0.00003649,0.00068304,-0.00306807,-0.00027562,-0.003370
 66,-0.00723072,-0.00001504,0.02164072,0.09178643,-0.00037123,-0.000560
 90,-0.00030416,0.00214920,0.00174983,0.00028411,-0.00523171,-0.0507543
 9,0.01664245,-0.02334494,-0.01910967,0.02985164,0.00334857,0.00086143,
 0.00477890,-0.00005147,0.00016038,-0.00001375,0.00029333,0.00017338,-0
 .00014837,-0.00024324,-0.00024568,-0.00029183,-0.00003340,-0.00022679,
 -0.00009339,0.00002375,0.00031367,0.00010569,-0.00087675,0.00112876,0.
 00012399,0.00837399,0.00428575,-0.01986182,0.01608418,0.06193483,0.001
 57342,0.00053579,0.00136518,0.00833865,0.00188455,-0.02180873,0.080285
 32,0.01928506,-0.25704662,0.00253037,0.00857021,0.00178655,-0.00176185
 ,-0.00067453,0.00214039,-0.00014208,-0.00027051,0.00049023,-0.00004186
 ,-0.00017418,-0.00001912,0.00019582,0.00020236,0.00004719,-0.00020179,
 0.00038480,0.00063617,-0.00100074,-0.00087696,0.00066926,-0.00303208,-
 0.00025390,-0.00159003,0.00218241,-0.00023383,-0.00518149,-0.09083355,
 -0.02896974,0.27844497,0.00008990,-0.00007935,0.00000919,0.00025223,-0
 .00068586,-0.00014608,0.00203669,0.00599416,0.00039945,-0.03298590,0.0
 1186298,-0.00917714,-0.16742930,0.11175937,0.04664550,0.00763518,-0.00
 798046,-0.00188024,0.00072024,-0.00084582,-0.00029381,0.00145792,0.000
 51179,0.00042255,-0.00004489,0.00014085,0.00000094,0.00001951,-0.00003
 448,-0.00001092,0.00001580,0.00009904,0.00006288,0.00041063,-0.0018689
 3,-0.00007192,-0.00031565,-0.00040671,0.00027777,0.19401648,0.00007398
 ,-0.00002099,0.00000251,-0.00022583,0.00019794,-0.00007511,-0.00216669
 ,0.00319910,0.00069143,-0.00202646,0.00501007,0.00388862,0.10976906,-0
 .15776284,-0.04023417,0.02301704,-0.02302540,-0.00801348,0.00198598,0.
 00073370,-0.00008176,-0.00066815,0.00301368,-0.00036824,0.00002717,-0.
 00000783,0.00000120,0.00000481,-0.00002600,-0.00000049,0.00001727,-0.0
 0001623,0.00001143,0.00172075,0.00059868,0.00006589,0.00018374,-0.0002
 0569,-0.00017545,-0.12458488,0.16811700,0.00006878,-0.00002597,-0.0000
 7257,-0.00002637,0.00002669,0.00000432,0.00053744,0.00321718,0.0005822
 9,-0.02684262,0.01411176,0.00284424,0.04769361,-0.04294977,-0.06815545
 ,-0.00107936,0.00430961,0.00089300,-0.00115889,0.00090008,0.00081940,-
 0.00005195,-0.00056910,-0.00023284,-0.00001130,0.00001593,0.00000196,0
 .00000743,-0.00002228,0.00000025,-0.00001769,0.00003090,0.00000133,0.0
 0101930,-0.00052358,0.00007803,-0.00005180,-0.00062746,-0.00033448,-0.
 04104833,0.04110131,0.06973232,-0.00003728,-0.00001493,0.00009537,-0.0
 0007742,0.00001640,-0.00011284,0.00334084,0.00375406,-0.00302927,0.000
 35063,0.00055163,-0.03715741,-0.07818770,-0.01156922,0.07944339,-0.004
 47858,-0.00135822,0.01135543,0.00108152,-0.00298813,0.00133457,0.00081
 622,0.00108872,-0.00176296,-0.00000146,-0.00001652,-0.00000177,-0.0000
 4536,0.00003022,0.00001173,-0.00002010,-0.00006230,0.00017223,-0.00060
 637,-0.00039714,0.00033918,0.00011733,0.00026036,0.00168662,-0.0055108
 5,-0.00339639,0.02134740,0.08319555,0.00004169,-0.00001628,0.00005353,
 -0.00005612,-0.00006616,-0.00006550,0.00138738,0.00169679,-0.00271533,
 -0.00121528,0.00244899,-0.00291060,-0.01038260,-0.05979525,0.03420131,
 -0.01414797,-0.00568121,0.03108641,0.00109920,-0.00556773,0.00112434,0
 .00119150,0.00230505,-0.00258041,0.00001073,0.00000752,0.00000867,-0.0
 0002743,0.00001612,0.00000334,-0.00001792,-0.00007432,0.00008552,0.000
 09441,-0.00012039,-0.00008119,0.00024156,0.00052236,0.00074495,0.00832
 460,0.00414998,-0.01967004,0.01447832,0.05914476,-0.00009466,-0.000019
 19,-0.00008825,-0.00038143,-0.00043962,0.00056344,0.00251416,0.0043648
 6,0.00076874,-0.01203793,0.00001850,-0.03000730,0.07664129,0.03383924,
 -0.25302915,0.00173768,0.00037628,-0.00180080,-0.00134008,-0.00022149,
 0.00073626,0.00194546,0.00115904,0.00089890,-0.00005147,0.00004297,0.0
 0001463,-0.00003950,-0.00001575,0.00001077,0.00026821,0.00010144,0.000
 26780,0.00013566,-0.00058986,-0.00026174,-0.00124307,-0.00157011,0.000
 44339,0.00498396,0.00162371,-0.00659038,-0.07272082,-0.03896034,0.2873
 7312,0.00000339,-0.00000237,-0.00000912,-0.00002402,0.00009841,-0.0000
 0256,0.00021446,-0.00010245,0.00008874,0.00142090,0.00124783,0.0008415
 9,0.00870212,-0.00959546,-0.00172600,-0.15589972,0.12905252,0.03917945
 ,-0.01013497,0.00665675,-0.00136703,-0.02701037,0.01125221,0.00445047,
 0.00000093,-0.00001765,-0.00000342,-0.00000202,0.00000803,0.00000282,-
 0.00000937,0.00000177,-0.00000572,-0.00018569,0.00006518,0.00001017,0.
 00001453,0.00000528,0.00000192,-0.00077970,-0.00269599,-0.00038261,0.0
 0047263,0.00066407,-0.00004573,0.18309134,-0.00007861,0.00002989,-0.00
 007989,-0.00007604,-0.00001111,0.00009702,-0.00032848,0.00004870,-0.00
 024457,-0.00037160,0.00180127,0.00035274,0.02102926,-0.01902780,-0.006
 54661,0.13006451,-0.20648137,-0.04394236,-0.00699974,0.00486970,0.0022
 8915,-0.00352780,0.00945517,0.00355820,-0.00002726,-0.00002055,-0.0000
 0168,0.00000440,-0.00001830,0.00000784,-0.00000934,-0.00001454,-0.0000
 2914,-0.00000599,0.00036139,0.00008190,0.00004358,-0.00001634,0.000009
 19,-0.00252619,-0.00440900,0.00075425,-0.00020902,0.00098355,0.0004274
 3,-0.13633183,0.21201472,0.00000127,0.00001382,0.00002142,0.00001043,0
 .00003340,-0.00002581,-0.00006358,-0.00015617,0.00001196,0.00029865,0.
 00037889,0.00009270,-0.00109942,0.00370721,0.00269229,0.04525366,-0.04
 367487,-0.05795570,0.01405345,-0.02240539,-0.00574317,-0.01940563,0.01
 738402,0.00632818,0.00000742,-0.00000692,-0.00000180,0.00000160,-0.000
 00327,-0.00000486,0.00000445,-0.00002272,-0.00001523,-0.00003553,0.000
 05784,-0.00002293,0.00003893,0.00006223,-0.00003533,0.00000069,0.00071
 180,0.00061919,-0.00055182,-0.00045837,0.00028294,-0.04092105,0.042843
 58,0.05268585,-0.00003432,0.00000164,-0.00004002,0.00002172,-0.0000438
 4,0.00004340,-0.00000438,0.00025200,0.00001942,-0.00004099,0.00003534,
 -0.00042965,-0.00036375,0.00139577,0.00547555,0.00113734,-0.02893432,0
 .00610050,-0.04871252,-0.02393336,0.01713918,0.00230676,0.01366848,-0.
 00569304,-0.00001727,-0.00000080,-0.00000348,0.00001019,-0.00000146,-0
 .00000080,-0.00002156,-0.00000298,-0.00002837,0.00000850,-0.00002770,0
 .00001211,0.00003981,-0.00001084,-0.00002948,0.00008490,0.00005232,0.0
 0009920,-0.00098843,-0.00167280,-0.00001535,0.00031696,0.00073369,-0.0
 0144676,0.04329223,-0.00002757,0.00000129,-0.00002786,0.00000666,-0.00
 002255,0.00004650,0.00010973,0.00017529,-0.00003159,-0.00029595,-0.000
 16565,-0.00014622,0.00040016,0.00009001,0.00056667,0.00274478,-0.00220
 040,-0.00074395,-0.02396111,-0.30156341,0.08695329,-0.00053295,0.00850
 816,0.00463331,-0.00001450,-0.00000302,-0.00000378,0.00000564,-0.00000
 145,0.00000017,-0.00000116,-0.00000284,-0.00001034,-0.00000241,0.00000
 352,0.00000229,-0.00000768,-0.00000987,0.00000657,-0.00008887,0.000395
 55,-0.00000849,-0.00029292,-0.00002302,-0.00011000,0.00019046,0.000549
 58,0.00043058,0.02588005,0.30925175,0.00001067,0.00000457,0.00001730,0
 .00000616,0.00004539,-0.00002461,-0.00000402,-0.00014770,0.00003388,0.
 00029082,0.00040915,0.00029120,-0.00053135,-0.00113460,0.00038680,-0.0
 0106164,0.00142367,-0.00768762,0.01202775,0.08233822,-0.07520291,0.007
 62928,0.02878663,-0.02170329,0.00000778,-0.00000616,0.00000088,-0.0000
 0263,0.00000002,-0.00000072,0.00000441,-0.00000798,0.00000347,-0.00000
 178,0.00004380,-0.00000233,-0.00000099,0.00001931,-0.00000797,-0.00013
 300,0.00030736,-0.00001895,-0.00025876,-0.00002976,0.00033734,0.000465
 86,0.00058899,0.00039181,-0.01687090,-0.09920125,0.09408078,0.00000871
 ,0.00000364,-0.00001631,-0.00002326,-0.00002890,0.00004656,-0.00015562
 ,-0.00010519,-0.00002487,0.00013822,-0.00025972,-0.00035280,0.00077356
 ,0.00168541,-0.00137606,-0.01119599,0.02432279,0.01231018,-0.09950846,
 0.09335577,0.06745262,0.00820113,-0.01378256,-0.00746741,0.00000266,0.
 00000415,0.00000335,0.00000728,0.00000527,-0.00000819,-0.00002444,-0.0
 0000609,-0.00002424,-0.00000071,-0.00003836,0.00001992,0.00003470,0.00
 003163,-0.00002887,0.00032681,-0.00108773,-0.00010225,0.00057884,-0.00
 001335,-0.00025638,-0.00019141,-0.00138351,0.00385325,0.00296483,-0.00
 411235,-0.00157767,0.09806317,0.00000298,0.00000424,0.00001587,0.00000
 208,0.00000502,-0.00002676,-0.00008829,-0.00007086,0.00001281,0.000260
 34,-0.00003551,0.00022927,-0.00115924,0.00100206,-0.00041278,-0.005012
 88,0.00619662,0.00522268,0.09440096,-0.21389378,-0.10020505,-0.0024635
 4,0.00679587,-0.00102086,0.00000445,-0.00000009,0.00000019,-0.00000304
 ,-0.00000366,0.00000097,0.00000968,-0.00000259,0.00000795,-0.00000518,
 0.00000690,-0.00001441,-0.00000333,-0.00000106,0.00000563,0.00040877,0
 .00005827,-0.00007103,0.00012510,0.00006924,-0.00002710,-0.00049676,-0
 .00011496,0.00110432,0.01260882,-0.01498296,-0.01343963,-0.09859091,0.
 21496725,0.00000193,0.00000567,0.00000740,0.00000869,0.00004425,-0.000
 00204,0.00009428,-0.00007792,0.00002814,0.00001706,0.00064292,0.000049
 17,0.00081651,-0.00157334,0.00022560,-0.00175191,-0.00046787,-0.007011
 01,0.06120977,-0.09786721,-0.10876012,0.01719663,-0.01754829,-0.026625
 98,0.00000450,-0.00000762,-0.00000048,-0.00000045,0.00000010,-0.000000
 33,0.00000075,-0.00000544,0.00000174,-0.00000055,0.00003948,0.00001208
 ,-0.00000533,0.00001233,0.00000044,-0.00004150,0.00054343,-0.00017167,
 -0.00019028,0.00016348,0.00008030,-0.00057777,-0.00016603,0.00067849,-
 0.00433151,0.00764411,0.00910495,-0.07245083,0.10861795,0.13238330\\0.
 00000001,0.00000021,-0.00000081,0.00000023,0.00000015,-0.00000044,-0.0
 0000009,0.00000007,-0.00000023,0.00000004,0.00000005,-0.00000009,-0.00
 000018,-0.00000006,0.00000018,-0.00000005,-0.00000009,0.00000032,0.000
 00018,-0.00000016,0.00000058,-0.00000018,-0.00000020,0.00000073,0.0000
 0010,0.00000011,-0.00000040,-0.00000012,0.00000007,-0.00000023,0.00000
 021,0.00000008,-0.00000027,0.,-0.00000003,-0.00000003,-0.00000015,0.00
 000003,-0.00000009,-0.00000005,-0.00000006,0.00000015,-0.00000018,-0.0
 0000002,0.00000007,-0.00000003,0.,0.00000007,0.00000014,-0.00000005,0.
 00000024,0.00000012,-0.00000009,0.00000027\\\@


 I (ERNEST RUTHERFORD) CAME INTO THE ROOM, WHICH WAS HALF DARK, AND PRESENTLY
 SPOTTED LORD KELVIN IN THE AUDIENCE AND REALIZED I WAS IN TROUBLE AT
 THE LAST PART OF MY SPEECH DEALING THE AGE OF THE EARTH, WHERE MY VIEWS
 CONFLICTED WITH HIS.  TO MY RELIEF KELVIN FELL FAST ASLEEP, BUT AS I CAME
 TO THE IMPORTANT POINT, I SAW THE OLD BIRD SIT UP AND COCK A BALEFUL GLANCE
 AT ME! THEN A SUDDEN INSPIRATION CAME AND I SAID LORD KELVIN HAD LIMITED
 THE AGE OF THE EARTH PROVIDED NO NEW SOURCE WAS DISCOVERED. THAT
 PROPHETIC UTTERANCE REFERS TO WHAT WE ARE NOW CONSIDERING TONIGHT, RADIUM!
 BEHOLD!  THE OLD BOY BEAMED UPON ME.
 Job cpu time:       0 days  0 hours 29 minutes  9.6 seconds.
 Elapsed time:       0 days  0 hours  0 minutes 31.7 seconds.
 File lengths (MBytes):  RWF=     93 Int=      0 D2E=      0 Chk=      5 Scr=      2
 Normal termination of Gaussian 16 at Tue May  9 19:40:12 2023.
