 Entering Gaussian System, Link 0=g16
 Input=AGC_opt_freq_sin.com
 Output=AGC_opt_freq_sin.log
 Initial command:
 /opt/ohpc/pub/apps/gaussian/avx2/g16/l1.exe "/scratch/g16-tmp/Gau-677303.inp" -scrdir="/scratch/g16-tmp/"
 Entering Link 1 = /opt/ohpc/pub/apps/gaussian/avx2/g16/l1.exe PID=    677304.
  
 Copyright (c) 1988-2017, Gaussian, Inc.  All Rights Reserved.
  
 This is part of the Gaussian(R) 16 program.  It is based on
 the Gaussian(R) 09 system (copyright 2009, Gaussian, Inc.),
 the Gaussian(R) 03 system (copyright 2003, Gaussian, Inc.),
 the Gaussian(R) 98 system (copyright 1998, Gaussian, Inc.),
 the Gaussian(R) 94 system (copyright 1995, Gaussian, Inc.),
 the Gaussian 92(TM) system (copyright 1992, Gaussian, Inc.),
 the Gaussian 90(TM) system (copyright 1990, Gaussian, Inc.),
 the Gaussian 88(TM) system (copyright 1988, Gaussian, Inc.),
 the Gaussian 86(TM) system (copyright 1986, Carnegie Mellon
 University), and the Gaussian 82(TM) system (copyright 1983,
 Carnegie Mellon University). Gaussian is a federally registered
 trademark of Gaussian, Inc.
  
 This software contains proprietary and confidential information,
 including trade secrets, belonging to Gaussian, Inc.
  
 This software is provided under written license and may be
 used, copied, transmitted, or stored only in accord with that
 written license.
  
 The following legend is applicable only to US Government
 contracts under FAR:
  
                    RESTRICTED RIGHTS LEGEND
  
 Use, reproduction and disclosure by the US Government is
 subject to restrictions as set forth in subparagraphs (a)
 and (c) of the Commercial Computer Software - Restricted
 Rights clause in FAR 52.227-19.
  
 Gaussian, Inc.
 340 Quinnipiac St., Bldg. 40, Wallingford CT 06492
  
  
 ---------------------------------------------------------------
 Warning -- This program may not be used in any manner that
 competes with the business of Gaussian, Inc. or will provide
 assistance to any competitor of Gaussian, Inc.  The licensee
 of this program is prohibited from giving any competitor of
 Gaussian, Inc. access to this program.  By using this program,
 the user acknowledges that Gaussian, Inc. is engaged in the
 business of creating and licensing software in the field of
 computational chemistry and represents and warrants to the
 licensee that it is not a competitor of Gaussian, Inc. and that
 it will not use this program in any manner prohibited above.
 ---------------------------------------------------------------
  

 Cite this work as:
 Gaussian 16, Revision B.01,
 M. J. Frisch, G. W. Trucks, H. B. Schlegel, G. E. Scuseria, 
 M. A. Robb, J. R. Cheeseman, G. Scalmani, V. Barone, 
 G. A. Petersson, H. Nakatsuji, X. Li, M. Caricato, A. V. Marenich, 
 J. Bloino, B. G. Janesko, R. Gomperts, B. Mennucci, H. P. Hratchian, 
 J. V. Ortiz, A. F. Izmaylov, J. L. Sonnenberg, D. Williams-Young, 
 F. Ding, F. Lipparini, F. Egidi, J. Goings, B. Peng, A. Petrone, 
 T. Henderson, D. Ranasinghe, V. G. Zakrzewski, J. Gao, N. Rega, 
 G. Zheng, W. Liang, M. Hada, M. Ehara, K. Toyota, R. Fukuda, 
 J. Hasegawa, M. Ishida, T. Nakajima, Y. Honda, O. Kitao, H. Nakai, 
 T. Vreven, K. Throssell, J. A. Montgomery, Jr., J. E. Peralta, 
 F. Ogliaro, M. J. Bearpark, J. J. Heyd, E. N. Brothers, K. N. Kudin, 
 V. N. Staroverov, T. A. Keith, R. Kobayashi, J. Normand, 
 K. Raghavachari, A. P. Rendell, J. C. Burant, S. S. Iyengar, 
 J. Tomasi, M. Cossi, J. M. Millam, M. Klene, C. Adamo, R. Cammi, 
 J. W. Ochterski, R. L. Martin, K. Morokuma, O. Farkas, 
 J. B. Foresman, and D. J. Fox, Gaussian, Inc., Wallingford CT, 2016.
 
 ******************************************
 Gaussian 16:  ES64L-G16RevB.01 20-Dec-2017
                11-May-2023 
 ******************************************
 %nprocshared=64
 Will use up to   64 processors via shared memory.
 %mem=64GB
 %chk=AGC_opt_freq_sin.chk
 ----------------------------------------------------------------------
 # opt=(calcall,tight,cartesian) freq b3lyp/gen nosymm scf=(qc,maxcycle
 =1024) pseudo=read
 ----------------------------------------------------------------------
 1/7=10,10=4,18=10,26=3,38=1/1,3;
 2/12=2,15=1,17=6,18=5,29=2,40=1/2;
 3/5=7,11=2,16=1,17=8,25=1,30=1,71=2,74=-5,140=1/1,2,3;
 4//1;
 5/5=2,7=1024,8=3,38=5/8;
 8/6=4,10=90,11=11/1;
 11/6=1,8=1,9=11,15=111,16=1,31=1/1,2,10;
 10/6=1,31=1/2;
 6/7=2,8=2,9=2,10=2,18=1,28=1/1;
 7/7=1,10=1,25=1,30=1/1,2,3,16;
 1/7=10,10=4,18=10,26=3/3(3);
 2/15=1,29=1/2;
 7/7=1,8=1,9=1,25=1,30=1,44=-1/16;
 99/12=1/99;
 2/15=1,29=1/2;
 3/5=7,6=1,11=2,16=1,17=8,25=1,30=1,71=2,74=-5,82=7,140=1/1,2,3;
 4/5=5,16=3,69=1/1;
 5/5=2,7=1024,8=3,38=5/8;
 8/6=4,10=90,11=11/1;
 11/6=1,8=1,9=11,15=111,16=1,31=1/1,2,10;
 10/6=1,31=1/2;
 7/7=1,10=1,25=1,30=1/1,2,3,16;
 1/7=10,10=4,18=10,26=3/3(-8);
 2/15=1,29=1/2;
 6/7=2,8=2,9=2,10=2,18=1,19=2,28=1/1;
 7/7=1,8=1,9=1,25=1,30=1,44=-1/16;
 99/12=1/99;
 ----------------
 AGC_opt_freq_sin
 ----------------
 Symbolic Z-matrix:
 Charge =  0 Multiplicity = 1
 C                    -1.45691   4.59697  -3.95432 
 C                    -1.28588   4.18925  -2.69463 
 C                    -0.33171   4.82437  -1.72783 
 O                     0.56268   3.82536  -1.24027 
 C                     1.24727   4.20441  -0.06378 
 C                     1.91775   2.98753   0.53894 
 C                     2.31642   3.17333   2.00989 
 O                     3.19579   2.70289  -0.0938 
 H                    -2.17865   4.12233  -4.61263 
 H                    -0.88238   5.42202  -4.37003 
 H                    -1.85865   3.35177  -2.29914 
 H                    -0.89517   5.24489  -0.8777 
 H                     0.22662   5.64455  -2.20579 
 H                     0.53204   4.59506   0.67801 
 H                     1.99904   4.98503  -0.26617 
 H                     1.28335   2.11263   0.39701 
 H                     1.638     2.66539   2.69471 
 H                     2.41808   4.22732   2.29387 
 O                     5.18785   1.8854    0.60796 
 C                     4.09847   2.34336   0.84424 
 O                     3.61616   2.55661   2.09273 
 

 GradGradGradGradGradGradGradGradGradGradGradGradGradGradGradGradGradGrad
 Berny optimization.
 Initialization pass.
 No Z-matrix variables, so optimization will use Cartesian coordinates.
 Trust Radius=3.00D-01 FncErr=1.00D-07 GrdErr=1.00D-06 EigMax=2.50D+02 EigMin=1.00D-04
 Number of steps in this run=     73 maximum allowed number of steps=    126.
 GradGradGradGradGradGradGradGradGradGradGradGradGradGradGradGradGradGrad

 ---------------------------------------------------------------------------------------------------
                            Z-MATRIX (ANGSTROMS AND DEGREES)
   CD    Cent   Atom    N1       Length/X        N2       Alpha/Y        N3        Beta/Z          J
 ---------------------------------------------------------------------------------------------------
      1      1  C        0  -1.456907          4.596967         -3.954321
      2      2  C        0  -1.285880          4.189250         -2.694631
      3      3  C        0  -0.331711          4.824365         -1.727834
      4      4  O        0   0.562675          3.825364         -1.240272
      5      5  C        0   1.247268          4.204414         -0.063778
      6      6  C        0   1.917752          2.987532          0.538935
      7      7  C        0   2.316422          3.173328          2.009892
      8      8  O        0   3.195787          2.702889         -0.093803
      9      9  H        0  -2.178647          4.122335         -4.612625
     10     10  H        0  -0.882379          5.422023         -4.370025
     11     11  H        0  -1.858653          3.351769         -2.299139
     12     12  H        0  -0.895173          5.244891         -0.877701
     13     13  H        0   0.226616          5.644547         -2.205786
     14     14  H        0   0.532042          4.595063          0.678009
     15     15  H        0   1.999036          4.985034         -0.266168
     16     16  H        0   1.283348          2.112629          0.397013
     17     17  H        0   1.638003          2.665394          2.694713
     18     18  H        0   2.418081          4.227323          2.293868
     19     19  O        0   5.187851          1.885398          0.607959
     20     20  C        0   4.098469          2.343361          0.844240
     21     21  O        0   3.616157          2.556607          2.092728
 ---------------------------------------------------------------------------------------------------
                         Z-Matrix orientation:                         
 ---------------------------------------------------------------------
 Center     Atomic      Atomic             Coordinates (Angstroms)
 Number     Number       Type             X           Y           Z
 ---------------------------------------------------------------------
      1          6           0       -1.456907    4.596967   -3.954321
      2          6           0       -1.285880    4.189250   -2.694631
      3          6           0       -0.331711    4.824365   -1.727834
      4          8           0        0.562675    3.825364   -1.240272
      5          6           0        1.247268    4.204414   -0.063778
      6          6           0        1.917752    2.987532    0.538935
      7          6           0        2.316422    3.173328    2.009892
      8          8           0        3.195787    2.702889   -0.093803
      9          1           0       -2.178647    4.122335   -4.612625
     10          1           0       -0.882379    5.422023   -4.370025
     11          1           0       -1.858653    3.351769   -2.299139
     12          1           0       -0.895173    5.244891   -0.877701
     13          1           0        0.226616    5.644547   -2.205786
     14          1           0        0.532042    4.595063    0.678009
     15          1           0        1.999036    4.985034   -0.266168
     16          1           0        1.283348    2.112629    0.397013
     17          1           0        1.638003    2.665394    2.694713
     18          1           0        2.418081    4.227323    2.293868
     19          8           0        5.187851    1.885398    0.607959
     20          6           0        4.098469    2.343361    0.844240
     21          8           0        3.616157    2.556607    2.092728
 ---------------------------------------------------------------------
                    Distance matrix (angstroms):
                    1          2          3          4          5
     1  C    0.000000
     2  C    1.335029   0.000000
     3  C    2.504999   1.499502   0.000000
     4  O    3.469891   2.380069   1.426761   0.000000
     5  C    4.754260   3.652185   2.376257   1.412970   0.000000
     6  C    5.845336   4.707795   3.684058   2.388257   1.514468
     7  C    7.199764   6.011756   4.869202   3.750246   2.550752
     8  O    6.335510   5.390632   4.428765   3.083443   2.460123
     9  H    1.086070   2.116651   3.496575   4.356122   5.695230
    10  H    1.087938   2.118841   2.764345   3.799060   4.955979
    11  H    2.109869   1.088971   2.196925   2.684832   3.920534
    12  H    3.193891   2.137350   1.103203   2.066842   2.516966
    13  H    2.643681   2.155111   1.101302   2.086763   2.775592
    14  H    5.041270   3.852820   2.566462   2.067166   1.101999
    15  H    5.069182   4.161896   2.755842   2.087306   1.102490
    16  H    5.710958   4.524550   3.804852   2.476597   2.142241
    17  H    7.584134   6.317931   5.300929   4.240987   3.182849
    18  H    7.361524   6.213365   4.908350   4.011764   2.632456
    19  O    8.504106   7.623912   6.675254   5.345248   4.621392
    20  C    7.679006   6.702397   5.691875   4.363870   3.523828
    21  O    8.152659   7.043742   5.943491   4.694932   3.602419
                    6          7          8          9         10
     6  C    0.000000
     7  C    1.535309   0.000000
     8  O    1.454219   2.328117   0.000000
     9  H    6.678835   8.060024   7.163736   0.000000
    10  H    6.153484   7.482800   6.504706   1.851582   0.000000
    11  H    4.737992   6.002570   5.552649   2.459347   3.086686
    12  H    3.874929   4.789980   4.879777   4.105739   3.496837
    13  H    4.177698   5.314711   4.682926   3.727639   2.441990
    14  H    2.126897   2.641828   3.357313   5.963398   5.307268
    15  H    2.155183   2.926339   2.582655   6.090072   5.033404
    16  H    1.089984   2.189453   2.060760   6.412550   6.194119
    17  H    2.197592   1.089600   3.194357   8.371779   7.991361
    18  H    2.206173   1.096304   2.937635   8.297022   7.531787
    19  O    3.451523   3.445183   2.264747   9.301810   8.610211
    20  C    2.294274   2.285450   1.350563   8.505546   7.840636
    21  O    2.341911   1.441013   2.231373   8.999612   8.379416
                   11         12         13         14         15
    11  H    0.000000
    12  H    2.555913   0.000000
    13  H    3.100628   1.783801   0.000000
    14  H    4.015546   2.208948   3.083987   0.000000
    15  H    4.656425   2.969502   2.708975   1.787629   0.000000
    16  H    4.321675   4.022675   4.512836   2.608812   3.033600
    17  H    6.134841   5.082610   5.906120   3.002310   3.778610
    18  H    6.336621   4.698079   5.201724   2.510653   2.702501
    19  O    7.762389   7.106093   6.830975   5.387369   4.532150
    20  C    6.810655   6.026642   5.932262   4.221042   3.552332
    21  O    7.063591   6.033442   6.285029   3.958345   3.751897
                   16         17         18         19         20
    16  H    0.000000
    17  H    2.389719   0.000000
    18  H    3.059021   1.791318   0.000000
    19  O    3.916794   4.190985   3.999816   0.000000
    20  C    2.859747   3.095456   2.911089   1.205119   0.000000
    21  O    2.917973   2.070583   2.065705   2.263909   1.355294
                   21
    21  O    0.000000
 Symmetry turned off by external request.
 Stoichiometry    C7H10O4
 Framework group  C1[X(C7H10O4)]
 Deg. of freedom    57
 Full point group                 C1      NOp   1
 Rotational constants (GHZ):           3.4764793           0.4015717           0.3718282
 General basis read from cards:  (5D, 7F)
 ======================================================================================================
                                       Pseudopotential Parameters
 ======================================================================================================
  Center     Atomic      Valence      Angular      Power
  Number     Number     Electrons     Momentum     of R      Exponent        Coefficient   SO-Coeffient
 ======================================================================================================
    1          6
                                   No pseudopotential on this center.
    2          6
                                   No pseudopotential on this center.
    3          6
                                   No pseudopotential on this center.
    4          8
                                   No pseudopotential on this center.
    5          6
                                   No pseudopotential on this center.
    6          6
                                   No pseudopotential on this center.
    7          6
                                   No pseudopotential on this center.
    8          8
                                   No pseudopotential on this center.
    9          1
                                   No pseudopotential on this center.
   10          1
                                   No pseudopotential on this center.
   11          1
                                   No pseudopotential on this center.
   12          1
                                   No pseudopotential on this center.
   13          1
                                   No pseudopotential on this center.
   14          1
                                   No pseudopotential on this center.
   15          1
                                   No pseudopotential on this center.
   16          1
                                   No pseudopotential on this center.
   17          1
                                   No pseudopotential on this center.
   18          1
                                   No pseudopotential on this center.
   19          8
                                   No pseudopotential on this center.
   20          6
                                   No pseudopotential on this center.
   21          8
                                   No pseudopotential on this center.
 ======================================================================================================
   248 basis functions,   422 primitive gaussians,   259 cartesian basis functions
    42 alpha electrons       42 beta electrons
       nuclear repulsion energy       607.9933256267 Hartrees.
 NAtoms=   21 NActive=   21 NUniq=   21 SFac= 1.00D+00 NAtFMM=   60 NAOKFM=F Big=F
 Integral buffers will be    131072 words long.
 Raffenetti 2 integral format.
 Two-electron integral symmetry is turned off.
 One-electron integrals computed using PRISM.
   1 Symmetry operations used in ECPInt.
 ECPInt:  NShTT=    3655 NPrTT=   16881 LenC2=    3351 LenP2D=   10706.
 LDataN:  DoStor=T MaxTD1= 4 Len=   56
 NBasis=   248 RedAO= T EigKep=  2.03D-05  NBF=   248
 NBsUse=   248 1.00D-06 EigRej= -1.00D+00 NBFU=   248
 ExpMin= 4.38D-02 ExpMax= 5.48D+03 ExpMxC= 8.25D+02 IAcc=3 IRadAn=         5 AccDes= 0.00D+00
 Harris functional with IExCor=  402 and IRadAn=       5 diagonalized for initial guess.
 HarFok:  IExCor=  402 AccDes= 0.00D+00 IRadAn=         5 IDoV= 1 UseB2=F ITyADJ=14
 ICtDFT=  3500011 ScaDFX=  1.000000  1.000000  1.000000  1.000000
 FoFCou: FMM=F IPFlag=           0 FMFlag=      100000 FMFlg1=           0
         NFxFlg=           0 DoJE=T BraDBF=F KetDBF=T FulRan=T
         wScrn=  0.000000 ICntrl=       500 IOpCl=  0 I1Cent=   200000004 NGrid=           0
         NMat0=    1 NMatS0=      1 NMatT0=    0 NMatD0=    1 NMtDS0=    0 NMtDT0=    0
 Symmetry not used in FoFCou.
 Gradient too large for Newton-Raphson -- use scaled steepest descent instead.
     Accept linear search using points  2 and  3.
 Gradient too large for Newton-Raphson -- use scaled steepest descent instead.
 Gradient too large for Newton-Raphson -- use scaled steepest descent instead.
     Minimum is close to point  2 DX=  2.89D-02 DF= -1.37D-05 DXR=  6.73D-02 DFR=  4.56D-03 which will be used.
 Gradient too large for Newton-Raphson -- use scaled steepest descent instead.
 Gradient too large for Newton-Raphson -- use scaled steepest descent instead.
     Accept linear search using points  1 and  2.
 Gradient too large for Newton-Raphson -- use scaled steepest descent instead.
     Accept linear search using points  2 and  3.
 LinEq1:  Iter=  0 NonCon=     1 RMS=1.67D-05 Max=5.12D-04 NDo=     1
 AX will form     1 AO Fock derivatives at one time.
 LinEq1:  Iter=  1 NonCon=     1 RMS=1.89D-05 Max=8.59D-04 NDo=     1
 LinEq1:  Iter=  2 NonCon=     1 RMS=3.71D-06 Max=1.08D-04 NDo=     1
 LinEq1:  Iter=  3 NonCon=     1 RMS=2.70D-06 Max=6.23D-05 NDo=     1
 LinEq1:  Iter=  4 NonCon=     1 RMS=1.31D-06 Max=3.50D-05 NDo=     1
 LinEq1:  Iter=  5 NonCon=     1 RMS=5.38D-07 Max=9.80D-06 NDo=     1
 LinEq1:  Iter=  6 NonCon=     1 RMS=3.16D-07 Max=8.89D-06 NDo=     1
 LinEq1:  Iter=  7 NonCon=     1 RMS=2.00D-07 Max=2.74D-06 NDo=     1
 LinEq1:  Iter=  8 NonCon=     1 RMS=9.58D-08 Max=1.48D-06 NDo=     1
 LinEq1:  Iter=  9 NonCon=     1 RMS=3.24D-08 Max=5.76D-07 NDo=     1
 LinEq1:  Iter= 10 NonCon=     1 RMS=1.72D-08 Max=3.02D-07 NDo=     1
 LinEq1:  Iter= 11 NonCon=     1 RMS=9.03D-09 Max=2.04D-07 NDo=     1
 LinEq1:  Iter= 12 NonCon=     0 RMS=3.86D-09 Max=7.71D-08 NDo=     1
 Linear equations converged to 1.315D-08 1.315D-07 after    12 iterations.
     Minimum is close to point  2 DX=  3.96D-04 DF= -3.41D-13 DXR=  3.96D-04 DFR=  1.29D-07 which will be used.
 SCF Done:  E(RB3LYP) =  -573.651099941     a.u. after    8 cycles
            Convg  =    0.1147D-05                    31 Fock formations.
              S**2 =  0.0000                  -V/T =  2.0068
 DoSCS=F DFT=T ScalE2(SS,OS)=  1.000000  1.000000
 Range of M.O.s used for correlation:     1   248
 NBasis=   248 NAE=    42 NBE=    42 NFC=     0 NFV=     0
 NROrb=    248 NOA=    42 NOB=    42 NVA=   206 NVB=   206

 **** Warning!!: The largest alpha MO coefficient is  0.64035043D+02

   1 Symmetry operations used in ECPInt.
 ECPInt:  NShTT=    3655 NPrTT=   16881 LenC2=    3351 LenP2D=   10706.
 LDataN:  DoStor=T MaxTD1= 5 Len=  102
 Number of processors reduced to  60 by ecpmxn.
 Symmetrizing basis deriv contribution to polar:
 IMax=3 JMax=2 DiffMx= 0.00D+00
 G2DrvN: will do    22 centers at a time, making    1 passes.
 Calling FoFCou, ICntrl=  3107 FMM=F I1Cent=   0 AccDes= 0.00D+00.
 End of G2Drv F.D. properties file   721 does not exist.
 End of G2Drv F.D. properties file   722 does not exist.
 End of G2Drv F.D. properties file   788 does not exist.
          IDoAtm=111111111111111111111
          Differentiating once with respect to electric field.
                with respect to dipole field.
          Differentiating once with respect to nuclear coordinates.
 Keep R1 ints in memory in canonical form, NReq=546145012.
          There are    66 degrees of freedom in the 1st order CPHF.  IDoFFX=6 NUNeed=     3.
     63 vectors produced by pass  0 Test12= 1.31D-14 1.52D-09 XBig12= 8.07D+01 4.77D+00.
 AX will form    63 AO Fock derivatives at one time.
     63 vectors produced by pass  1 Test12= 1.31D-14 1.52D-09 XBig12= 1.52D+01 8.88D-01.
     63 vectors produced by pass  2 Test12= 1.31D-14 1.52D-09 XBig12= 1.61D-01 5.34D-02.
     63 vectors produced by pass  3 Test12= 1.31D-14 1.52D-09 XBig12= 6.17D-04 3.92D-03.
     63 vectors produced by pass  4 Test12= 1.31D-14 1.52D-09 XBig12= 1.28D-06 1.52D-04.
     48 vectors produced by pass  5 Test12= 1.31D-14 1.52D-09 XBig12= 1.20D-09 3.07D-06.
      4 vectors produced by pass  6 Test12= 1.31D-14 1.52D-09 XBig12= 1.12D-12 1.21D-07.
      2 vectors produced by pass  7 Test12= 1.31D-14 1.52D-09 XBig12= 1.07D-15 2.69D-09.
 InvSVY:  IOpt=1 It=  1 EMax= 1.78D-15
 Solved reduced A of dimension   369 with    66 vectors.
 Isotropic polarizability for W=    0.000000       97.68 Bohr**3.
 End of Minotr F.D. properties file   721 does not exist.
 End of Minotr F.D. properties file   722 does not exist.
 End of Minotr F.D. properties file   788 does not exist.

 **********************************************************************

            Population analysis using the SCF Density.

 **********************************************************************

 Alpha  occ. eigenvalues --  -19.21916 -19.21616 -19.17906 -19.14526 -10.37092
 Alpha  occ. eigenvalues --  -10.28337 -10.28119 -10.26838 -10.25651 -10.20813
 Alpha  occ. eigenvalues --  -10.20072  -1.17155  -1.06841  -1.05884  -1.04344
 Alpha  occ. eigenvalues --   -0.83296  -0.80099  -0.73709  -0.68764  -0.65692
 Alpha  occ. eigenvalues --   -0.62230  -0.58257  -0.56448  -0.52959  -0.52021
 Alpha  occ. eigenvalues --   -0.51588  -0.50726  -0.47021  -0.46197  -0.45545
 Alpha  occ. eigenvalues --   -0.44329  -0.43406  -0.40580  -0.39485  -0.39015
 Alpha  occ. eigenvalues --   -0.37485  -0.35115  -0.32748  -0.31726  -0.30139
 Alpha  occ. eigenvalues --   -0.29550  -0.28065
 Alpha virt. eigenvalues --   -0.02157  -0.01236   0.00194   0.00478   0.01072
 Alpha virt. eigenvalues --    0.02033   0.02494   0.03101   0.03391   0.04430
 Alpha virt. eigenvalues --    0.04772   0.05706   0.05954   0.06995   0.07632
 Alpha virt. eigenvalues --    0.08091   0.08654   0.09172   0.09558   0.10659
 Alpha virt. eigenvalues --    0.11170   0.12212   0.12454   0.12730   0.13686
 Alpha virt. eigenvalues --    0.14757   0.14841   0.15503   0.15994   0.17130
 Alpha virt. eigenvalues --    0.18560   0.19324   0.19951   0.20165   0.20578
 Alpha virt. eigenvalues --    0.21721   0.22634   0.23479   0.23842   0.24289
 Alpha virt. eigenvalues --    0.25171   0.25513   0.25867   0.26138   0.27281
 Alpha virt. eigenvalues --    0.27534   0.28542   0.28616   0.29449   0.30524
 Alpha virt. eigenvalues --    0.30899   0.32137   0.32502   0.33025   0.33390
 Alpha virt. eigenvalues --    0.34312   0.35338   0.35660   0.37780   0.38823
 Alpha virt. eigenvalues --    0.39414   0.39599   0.40351   0.40569   0.43542
 Alpha virt. eigenvalues --    0.48017   0.50754   0.58314   0.59714   0.61346
 Alpha virt. eigenvalues --    0.62750   0.65099   0.67665   0.68786   0.69821
 Alpha virt. eigenvalues --    0.72641   0.73305   0.75960   0.76822   0.77871
 Alpha virt. eigenvalues --    0.80444   0.81392   0.82448   0.84140   0.86332
 Alpha virt. eigenvalues --    0.88075   0.90423   0.91479   0.93081   0.94424
 Alpha virt. eigenvalues --    0.97244   0.97928   0.99130   1.01725   1.03341
 Alpha virt. eigenvalues --    1.04496   1.05444   1.09934   1.12131   1.14825
 Alpha virt. eigenvalues --    1.15858   1.18096   1.19632   1.21168   1.21639
 Alpha virt. eigenvalues --    1.25119   1.26469   1.29220   1.31317   1.32550
 Alpha virt. eigenvalues --    1.33388   1.34357   1.35383   1.36611   1.37510
 Alpha virt. eigenvalues --    1.38280   1.41966   1.43303   1.47175   1.47425
 Alpha virt. eigenvalues --    1.48956   1.53535   1.55277   1.57442   1.61503
 Alpha virt. eigenvalues --    1.68270   1.69094   1.70305   1.73512   1.77952
 Alpha virt. eigenvalues --    1.79116   1.79805   1.82173   1.82992   1.84372
 Alpha virt. eigenvalues --    1.84808   1.87374   1.88358   1.89321   1.90819
 Alpha virt. eigenvalues --    1.91601   1.92659   1.94915   1.95435   1.97209
 Alpha virt. eigenvalues --    1.99083   1.99318   2.01561   2.02919   2.03979
 Alpha virt. eigenvalues --    2.08191   2.09380   2.10800   2.11586   2.11931
 Alpha virt. eigenvalues --    2.14304   2.16953   2.20713   2.24783   2.25503
 Alpha virt. eigenvalues --    2.31212   2.36659   2.37827   2.38542   2.41573
 Alpha virt. eigenvalues --    2.45843   2.48324   2.49294   2.50806   2.53781
 Alpha virt. eigenvalues --    2.54829   2.57396   2.60901   2.63791   2.65025
 Alpha virt. eigenvalues --    2.65788   2.67952   2.68850   2.71025   2.74069
 Alpha virt. eigenvalues --    2.77345   2.77523   2.79720   2.82146   2.82513
 Alpha virt. eigenvalues --    2.83476   2.85454   2.89019   2.92796   2.94979
 Alpha virt. eigenvalues --    2.99029   3.01240   3.05234   3.10082   3.22083
 Alpha virt. eigenvalues --    3.24004   3.25859   3.28238   3.30265   3.31970
 Alpha virt. eigenvalues --    3.38355   3.42730   3.44043   3.45619   3.50188
 Alpha virt. eigenvalues --    3.67797
          Condensed to atoms (all electrons):
               1          2          3          4          5          6
     1  C    5.029219   0.381038   0.067688  -0.014825  -0.009050   0.012863
     2  C    0.381038   5.325783   0.182412   0.022052   0.017338  -0.104900
     3  C    0.067688   0.182412   5.291644  -0.006696  -0.025573  -0.065185
     4  O   -0.014825   0.022052  -0.006696   8.438522   0.239270  -0.139642
     5  C   -0.009050   0.017338  -0.025573   0.239270   6.404744  -1.063359
     6  C    0.012863  -0.104900  -0.065185  -0.139642  -1.063359   7.000680
     7  C   -0.001778   0.000287  -0.026878   0.031758  -0.073554   0.040143
     8  O    0.000958  -0.005051  -0.006121  -0.003741  -0.185754   0.311108
     9  H    0.382341  -0.034131   0.015478   0.000153  -0.000082   0.000104
    10  H    0.439719  -0.110027   0.013737   0.000771   0.002759   0.000208
    11  H    0.002880   0.345590  -0.036777   0.000495  -0.000001  -0.003385
    12  H   -0.018108   0.018012   0.392015  -0.065096  -0.016782  -0.009181
    13  H    0.023613  -0.068072   0.415074  -0.048150  -0.002385  -0.014769
    14  H   -0.001851   0.000410  -0.002227  -0.062614   0.398199  -0.063480
    15  H    0.002596  -0.004922  -0.013701  -0.045466   0.390751  -0.014713
    16  H    0.000224  -0.004104  -0.000196  -0.005870  -0.081982   0.410643
    17  H   -0.000004  -0.000446   0.000912  -0.000869  -0.040419  -0.021861
    18  H   -0.000007   0.000487   0.000629   0.001763   0.100371  -0.172222
    19  O   -0.000006   0.000081   0.000697   0.000510   0.021681  -0.032192
    20  C   -0.000009  -0.001233   0.008003  -0.002347   0.005166  -0.118659
    21  O   -0.000004   0.000355   0.000153  -0.000066  -0.006606  -0.004323
               7          8          9         10         11         12
     1  C   -0.001778   0.000958   0.382341   0.439719   0.002880  -0.018108
     2  C    0.000287  -0.005051  -0.034131  -0.110027   0.345590   0.018012
     3  C   -0.026878  -0.006121   0.015478   0.013737  -0.036777   0.392015
     4  O    0.031758  -0.003741   0.000153   0.000771   0.000495  -0.065096
     5  C   -0.073554  -0.185754  -0.000082   0.002759  -0.000001  -0.016782
     6  C    0.040143   0.311108   0.000104   0.000208  -0.003385  -0.009181
     7  C    5.306503  -0.023197   0.000005   0.000022   0.000680  -0.003482
     8  O   -0.023197   8.387093   0.000000  -0.000000  -0.000032   0.000078
     9  H    0.000005   0.000000   0.536936  -0.035327  -0.007000  -0.000215
    10  H    0.000022  -0.000000  -0.035327   0.543596   0.004474   0.000190
    11  H    0.000680  -0.000032  -0.007000   0.004474   0.555436  -0.003948
    12  H   -0.003482   0.000078  -0.000215   0.000190  -0.003948   0.626608
    13  H    0.002019  -0.000253   0.000144   0.003902   0.004195  -0.049856
    14  H    0.011980   0.006415   0.000000   0.000000  -0.000030   0.012309
    15  H    0.007954  -0.005900   0.000000  -0.000001   0.000001  -0.002163
    16  H   -0.009378  -0.049293  -0.000000  -0.000000  -0.000002  -0.000011
    17  H    0.420772   0.005539  -0.000000  -0.000000   0.000000  -0.000000
    18  H    0.406837   0.002476  -0.000000  -0.000000  -0.000000  -0.000001
    19  O    0.019591  -0.097190   0.000000   0.000000  -0.000000   0.000001
    20  C   -0.102595   0.181377   0.000000  -0.000007  -0.000019   0.000000
    21  O    0.108435  -0.155918  -0.000000  -0.000000  -0.000000   0.000012
              13         14         15         16         17         18
     1  C    0.023613  -0.001851   0.002596   0.000224  -0.000004  -0.000007
     2  C   -0.068072   0.000410  -0.004922  -0.004104  -0.000446   0.000487
     3  C    0.415074  -0.002227  -0.013701  -0.000196   0.000912   0.000629
     4  O   -0.048150  -0.062614  -0.045466  -0.005870  -0.000869   0.001763
     5  C   -0.002385   0.398199   0.390751  -0.081982  -0.040419   0.100371
     6  C   -0.014769  -0.063480  -0.014713   0.410643  -0.021861  -0.172222
     7  C    0.002019   0.011980   0.007954  -0.009378   0.420772   0.406837
     8  O   -0.000253   0.006415  -0.005900  -0.049293   0.005539   0.002476
     9  H    0.000144   0.000000   0.000000  -0.000000  -0.000000  -0.000000
    10  H    0.003902   0.000000  -0.000001  -0.000000  -0.000000  -0.000000
    11  H    0.004195  -0.000030   0.000001  -0.000002   0.000000  -0.000000
    12  H   -0.049856   0.012309  -0.002163  -0.000011  -0.000000  -0.000001
    13  H    0.605046  -0.002228   0.004979   0.000003   0.000000  -0.000000
    14  H   -0.002228   0.636825  -0.050468  -0.000595   0.000510  -0.001624
    15  H    0.004979  -0.050468   0.575991   0.004112   0.000091   0.001958
    16  H    0.000003  -0.000595   0.004112   0.554720  -0.006102   0.004396
    17  H    0.000000   0.000510   0.000091  -0.006102   0.547534  -0.039985
    18  H   -0.000000  -0.001624   0.001958   0.004396  -0.039985   0.578677
    19  O   -0.000001   0.000107  -0.000292  -0.000487  -0.000389  -0.000427
    20  C    0.000078   0.000090  -0.000638   0.012471   0.018788   0.008281
    21  O   -0.000002   0.001234  -0.001021  -0.000182  -0.048414  -0.043879
              19         20         21
     1  C   -0.000006  -0.000009  -0.000004
     2  C    0.000081  -0.001233   0.000355
     3  C    0.000697   0.008003   0.000153
     4  O    0.000510  -0.002347  -0.000066
     5  C    0.021681   0.005166  -0.006606
     6  C   -0.032192  -0.118659  -0.004323
     7  C    0.019591  -0.102595   0.108435
     8  O   -0.097190   0.181377  -0.155918
     9  H    0.000000   0.000000  -0.000000
    10  H    0.000000  -0.000007  -0.000000
    11  H   -0.000000  -0.000019  -0.000000
    12  H    0.000001   0.000000   0.000012
    13  H   -0.000001   0.000078  -0.000002
    14  H    0.000107   0.000090   0.001234
    15  H   -0.000292  -0.000638  -0.001021
    16  H   -0.000487   0.012471  -0.000182
    17  H   -0.000389   0.018788  -0.048414
    18  H   -0.000427   0.008281  -0.043879
    19  O    8.189596   0.470360  -0.107704
    20  C    0.470360   4.602541   0.201455
    21  O   -0.107704   0.201455   8.422081
 Mulliken charges:
               1
     1  C   -0.297496
     2  C    0.039038
     3  C   -0.205089
     4  O   -0.339914
     5  C   -0.074733
     6  C    0.052123
     7  C   -0.116125
     8  O   -0.362596
     9  H    0.141593
    10  H    0.135983
    11  H    0.137444
    12  H    0.119620
    13  H    0.126662
    14  H    0.117039
    15  H    0.150852
    16  H    0.171632
    17  H    0.164343
    18  H    0.152268
    19  O   -0.463936
    20  C    0.716897
    21  O   -0.365605
 Sum of Mulliken charges =   0.00000
 Mulliken charges with hydrogens summed into heavy atoms:
               1
     1  C   -0.019920
     2  C    0.176482
     3  C    0.041193
     4  O   -0.339914
     5  C    0.193158
     6  C    0.223756
     7  C    0.200486
     8  O   -0.362596
    19  O   -0.463936
    20  C    0.716897
    21  O   -0.365605
 APT charges:
               1
     1  C   -0.091622
     2  C   -0.025218
     3  C    0.636857
     4  O   -0.845616
     5  C    0.555893
     6  C    0.426040
     7  C    0.432360
     8  O   -0.823005
     9  H    0.035365
    10  H    0.038717
    11  H    0.022147
    12  H   -0.085766
    13  H   -0.069800
    14  H   -0.071043
    15  H   -0.058479
    16  H   -0.026411
    17  H   -0.002556
    18  H   -0.028299
    19  O   -0.832600
    20  C    1.582113
    21  O   -0.769075
 Sum of APT charges =   0.00000
 APT charges with hydrogens summed into heavy atoms:
               1
     1  C   -0.017540
     2  C   -0.003071
     3  C    0.481291
     4  O   -0.845616
     5  C    0.426371
     6  C    0.399629
     7  C    0.401505
     8  O   -0.823005
    19  O   -0.832600
    20  C    1.582113
    21  O   -0.769075
 Electronic spatial extent (au):  <R**2>=           7260.3524
 Charge=              0.0000 electrons
 Dipole moment (field-independent basis, Debye):
    X=             -5.9315    Y=              3.3393    Z=              1.2627  Tot=              6.9230
 Quadrupole moment (field-independent basis, Debye-Ang):
   XX=           -102.2468   YY=            -42.1574   ZZ=            -62.8205
   XY=             -5.9948   XZ=              0.6290   YZ=              3.0664
 Traceless Quadrupole moment (field-independent basis, Debye-Ang):
   XX=            -33.1719   YY=             26.9175   ZZ=              6.2544
   XY=             -5.9948   XZ=              0.6290   YZ=              3.0664
 Octapole moment (field-independent basis, Debye-Ang**2):
  XXX=           -522.6913  YYY=           -555.6436  ZZZ=             61.0232  XYY=            -87.0398
  XXY=           -286.7976  XXZ=              1.3407  XZZ=           -124.2244  YZZ=           -205.1508
  YYZ=             27.4609  XYZ=              8.2318
 Hexadecapole moment (field-independent basis, Debye-Ang**3):
 XXXX=          -4002.8232 YYYY=          -4577.6932 ZZZZ=          -1433.8898 XXXY=          -1051.6937
 XXXZ=           -666.5550 YYYX=           -539.3718 YYYZ=            483.0926 ZZZX=           -492.3601
 ZZZY=            438.7037 XXYY=          -1417.4393 XXZZ=           -776.9982 YYZZ=           -988.9515
 XXYZ=            155.6165 YYXZ=           -143.1164 ZZXY=           -280.4662
 N-N= 6.079933256267D+02 E-N=-2.556368167909D+03  KE= 5.697588709866D+02
  Exact polarizability: 104.907 -12.185  80.195  15.361  -6.626 107.952
 Approx polarizability: 133.595 -10.294 112.423   4.658  -5.557 144.547
   1 Symmetry operations used in ECPInt.
 ECPInt:  NShTT=    3655 NPrTT=   16881 LenC2=    3351 LenP2D=   10706.
 LDataN:  DoStor=T MaxTD1= 6 Len=  172
 Calling FoFJK, ICntrl=    100127 FMM=F ISym2X=0 I1Cent= 0 IOpClX= 0 NMat=1 NMatS=1 NMatT=0.
 -------------------------------------------------------------------
 Center     Atomic                   Forces (Hartrees/Bohr)
 Number     Number              X              Y              Z
 -------------------------------------------------------------------
      1        6          -0.000458346   -0.000015480    0.000062151
      2        6           0.001223961    0.000296292   -0.000818650
      3        6          -0.000480228    0.000824177   -0.001789221
      4        8          -0.000141948   -0.000975582    0.002846119
      5        6          -0.000290809   -0.001286248   -0.002892690
      6        6           0.007551437    0.001352516   -0.001673953
      7        6           0.004600050    0.000231545    0.000325957
      8        8          -0.009406234    0.002680924   -0.001479286
      9        1           0.000055773    0.000043146   -0.000008146
     10        1          -0.000018924   -0.000097225    0.000068184
     11        1          -0.000290676   -0.000198545   -0.000476085
     12        1           0.000010533    0.000735508    0.000343505
     13        1          -0.000280958   -0.000247788    0.000345789
     14        1          -0.000980708    0.001439396    0.000891911
     15        1          -0.000330394   -0.000348799    0.001009215
     16        1          -0.002077699   -0.002241198   -0.001028766
     17        1           0.000099689   -0.000024755    0.001886548
     18        1          -0.000597399   -0.000054241    0.000015522
     19        8          -0.008100284    0.005149507    0.002103004
     20        6           0.016719061   -0.008365532   -0.003898947
     21        8          -0.006805898    0.001102381    0.004167839
 -------------------------------------------------------------------
 Cartesian Forces:  Max     0.016719061 RMS     0.003458269

 GradGradGradGradGradGradGradGradGradGradGradGradGradGradGradGradGradGrad
 Berny optimization.
 Search for a local minimum.
 Step number   1 out of a maximum of   73
 All quantities printed in internal units (Hartrees-Bohrs-Radians)
 Second derivative matrix not updated -- analytic derivatives used.
 ITU=  0
     Eigenvalues ---    0.00006   0.00029   0.00072   0.00125   0.00193
     Eigenvalues ---    0.00371   0.00827   0.01003   0.01260   0.01931
     Eigenvalues ---    0.02257   0.02650   0.03608   0.04096   0.04630
     Eigenvalues ---    0.05925   0.06265   0.06719   0.07638   0.07824
     Eigenvalues ---    0.08630   0.09181   0.10108   0.10783   0.12397
     Eigenvalues ---    0.12992   0.13311   0.14805   0.16947   0.17318
     Eigenvalues ---    0.18617   0.21143   0.21417   0.23985   0.26641
     Eigenvalues ---    0.28473   0.32026   0.33764   0.40676   0.49263
     Eigenvalues ---    0.51447   0.56382   0.59768   0.64893   0.65794
     Eigenvalues ---    0.71019   0.73844   0.76705   0.78234   0.79390
     Eigenvalues ---    0.82259   0.84430   0.86809   0.93940   0.97167
     Eigenvalues ---    1.47079   1.73304
 RFO step:  Lambda=-1.63324056D-03 EMin= 5.99829976D-05
 Linear search not attempted -- first point.
 Maximum step size (   0.300) exceeded in Quadratic search.
    -- Step size scaled by   0.597
 B after Tr=     0.011911   -0.010142   -0.015881
         Rot=    0.999999   -0.001150   -0.000144   -0.001220 Ang=  -0.19 deg.
 Variable       Old X    -DE/DX   Delta X   Delta X   Delta X     New X
                                 (Linear)    (Quad)   (Total)
    X1       -2.75316  -0.00046   0.00000   0.03227   0.02076  -2.73239
    Y1        8.68701  -0.00002   0.00000   0.02229   0.02272   8.70973
    Z1       -7.47258   0.00006   0.00000  -0.03012  -0.02516  -7.49774
    X2       -2.42996   0.00122   0.00000   0.01747   0.00857  -2.42139
    Y2        7.91654   0.00030   0.00000   0.00569   0.00141   7.91794
    Z2       -5.09211  -0.00082   0.00000  -0.03381  -0.03076  -5.12287
    X3       -0.62684  -0.00048   0.00000   0.00534  -0.00590  -0.63274
    Y3        9.11673   0.00082   0.00000  -0.01563  -0.01981   9.09692
    Z3       -3.26513  -0.00179   0.00000  -0.00851  -0.00326  -3.26839
    X4        1.06330  -0.00014   0.00000  -0.08274  -0.08899   0.97431
    Y4        7.22889  -0.00098   0.00000  -0.05614  -0.05871   7.17018
    Z4       -2.34377   0.00285   0.00000   0.07408   0.07443  -2.26935
    X5        2.35699  -0.00029   0.00000  -0.04548  -0.05292   2.30408
    Y5        7.94519  -0.00129   0.00000  -0.02200  -0.02635   7.91884
    Z5       -0.12052  -0.00289   0.00000   0.03748   0.03917  -0.08135
    X6        3.62403   0.00755   0.00000  -0.00939  -0.01094   3.61309
    Y6        5.64562   0.00135   0.00000  -0.00657  -0.01034   5.63527
    Z6        1.01844  -0.00167   0.00000   0.03516   0.03121   1.04965
    X7        4.37740   0.00460   0.00000   0.04026   0.03861   4.41601
    Y7        5.99672   0.00023   0.00000   0.01427   0.00609   6.00281
    Z7        3.79815   0.00033   0.00000   0.02046   0.01713   3.81528
    X8        6.03916  -0.00941   0.00000  -0.03917  -0.03980   5.99937
    Y8        5.10772   0.00268   0.00000   0.00404   0.00892   5.11664
    Z8       -0.17726  -0.00148   0.00000  -0.00198  -0.00782  -0.18508
    X9       -4.11705   0.00006   0.00000   0.03075   0.02103  -4.09601
    Y9        7.79008   0.00004   0.00000   0.03680   0.03679   7.82687
    Z9       -8.71660  -0.00001   0.00000  -0.03869  -0.03537  -8.75197
   X10       -1.66745  -0.00002   0.00000   0.04500   0.02947  -1.63799
   Y10       10.24614  -0.00010   0.00000   0.01879   0.02367  10.26981
   Z10       -8.25815   0.00007   0.00000  -0.01863  -0.01041  -8.26856
   X11       -3.51235  -0.00029   0.00000  -0.00193  -0.00676  -3.51910
   Y11        6.33393  -0.00020   0.00000   0.00978   0.00114   6.33507
   Z11       -4.34474  -0.00048   0.00000  -0.05221  -0.05248  -4.39723
   X12       -1.69163   0.00001   0.00000  -0.00841  -0.02130  -1.71293
   Y12        9.91141   0.00074   0.00000   0.05315   0.04273   9.95414
   Z12       -1.65861   0.00034   0.00000  -0.04951  -0.04198  -1.70059
   X13        0.42824  -0.00028   0.00000   0.07942   0.06426   0.49250
   Y13       10.66665  -0.00025   0.00000  -0.06661  -0.06597  10.60068
   Z13       -4.16833   0.00035   0.00000  -0.00789   0.00049  -4.16785
   X14        1.00541  -0.00098   0.00000  -0.02064  -0.02953   0.97588
   Y14        8.68341   0.00144   0.00000   0.00369  -0.00717   8.67624
   Z14        1.28125   0.00089   0.00000   0.05329   0.05711   1.33836
   X15        3.77763  -0.00033   0.00000  -0.05370  -0.06487   3.71276
   Y15        9.42035  -0.00035   0.00000  -0.02497  -0.02492   9.39543
   Z15       -0.50298   0.00101   0.00000  -0.00295   0.00172  -0.50126
   X16        2.42518  -0.00208   0.00000  -0.01409  -0.01164   2.41353
   Y16        3.99229  -0.00224   0.00000  -0.01554  -0.02170   3.97059
   Z16        0.75025  -0.00103   0.00000   0.06436   0.05694   0.80719
   X17        3.09538   0.00010   0.00000   0.04764   0.04862   3.14400
   Y17        5.03686  -0.00002   0.00000   0.05984   0.04547   5.08234
   Z17        5.09227   0.00189   0.00000   0.06461   0.05955   5.15182
   X18        4.56951  -0.00060   0.00000   0.07844   0.07206   4.64157
   Y18        7.98848  -0.00005   0.00000   0.02040   0.01161   8.00010
   Z18        4.33478   0.00002   0.00000  -0.01303  -0.01182   4.32296
   X19        9.80362  -0.00810   0.00000   0.00672   0.01012   9.81373
   Y19        3.56289   0.00515   0.00000   0.04748   0.05874   3.62163
   Z19        1.14888   0.00210   0.00000  -0.05639  -0.06677   1.08210
   X20        7.74498   0.01672   0.00000   0.00479   0.00632   7.75131
   Y20        4.42831  -0.00837   0.00000   0.00370   0.00883   4.43715
   Z20        1.59538  -0.00390   0.00000  -0.02862  -0.03653   1.55885
   X21        6.83355  -0.00681   0.00000   0.01149   0.01282   6.84637
   Y21        4.83129   0.00110   0.00000  -0.03062  -0.03316   4.79812
   Z21        3.95468   0.00417   0.00000  -0.00859  -0.01539   3.93929
         Item               Value     Threshold  Converged?
 Maximum Force            0.016719     0.000015     NO 
 RMS     Force            0.003458     0.000010     NO 
 Maximum Displacement     0.088987     0.000060     NO 
 RMS     Displacement     0.037140     0.000040     NO 
 Predicted change in Energy=-7.568856D-04
 GradGradGradGradGradGradGradGradGradGradGradGradGradGradGradGradGradGrad

                          Input orientation:                          
 ---------------------------------------------------------------------
 Center     Atomic      Atomic             Coordinates (Angstroms)
 Number     Number       Type             X           Y           Z
 ---------------------------------------------------------------------
      1          6           0       -1.445921    4.608991   -3.967635
      2          6           0       -1.281346    4.189994   -2.710908
      3          6           0       -0.334834    4.813883   -1.729560
      4          8           0        0.515585    3.794298   -1.200888
      5          6           0        1.219265    4.190469   -0.043050
      6          6           0        1.911964    2.982058    0.555452
      7          6           0        2.336853    3.176551    2.018959
      8          8           0        3.174728    2.707608   -0.097941
      9          1           0       -2.167516    4.141801   -4.631343
     10          1           0       -0.866785    5.434551   -4.375532
     11          1           0       -1.862230    3.352373   -2.326912
     12          1           0       -0.906442    5.267503   -0.899914
     13          1           0        0.260619    5.609636   -2.205529
     14          1           0        0.516413    4.591270    0.708232
     15          1           0        1.964710    4.971848   -0.265256
     16          1           0        1.277187    2.101148    0.427145
     17          1           0        1.663731    2.689457    2.726224
     18          1           0        2.456215    4.233469    2.287612
     19          8           0        5.193204    1.916482    0.572625
     20          6           0        4.101814    2.348036    0.824910
     21          8           0        3.622942    2.539058    2.084583
 ---------------------------------------------------------------------
                    Distance matrix (angstroms):
                    1          2          3          4          5
     1  C    0.000000
     2  C    1.334918   0.000000
     3  C    2.507085   1.499389   0.000000
     4  O    3.487996   2.380272   1.429076   0.000000
     5  C    4.762430   3.656572   2.376590   1.411632   0.000000
     6  C    5.863499   4.724981   3.691200   2.386282   1.516013
     7  C    7.224996   6.040701   4.885709   3.750472   2.555174
     8  O    6.319825   5.374166   4.406313   3.077082   2.454736
     9  H    1.086036   2.115583   3.497251   4.368960   5.703076
    10  H    1.087809   2.119376   2.769363   3.831415   4.966864
    11  H    2.108169   1.089261   2.196765   2.667814   3.926072
    12  H    3.183644   2.140392   1.104907   2.069560   2.532360
    13  H    2.649261   2.156025   1.101968   2.090398   2.758505
    14  H    5.070977   3.883746   2.591719   2.068793   1.104113
    15  H    5.046948   4.138766   2.730758   2.088539   1.102550
    16  H    5.746189   4.555957   3.822161   2.469269   2.142359
    17  H    7.626421   6.362978   5.325547   4.238056   3.181111
    18  H    7.382127   6.241510   4.925901   4.016037   2.638917
    19  O    8.481836   7.607249   6.652382   5.343376   4.619769
    20  C    7.671882   6.698748   5.682390   4.365384   3.529449
    21  O    8.161332   7.055095   5.948655   4.693146   3.609937
                    6          7          8          9         10
     6  C    0.000000
     7  C    1.536297   0.000000
     8  O    1.448040   2.324480   0.000000
     9  H    6.700000   8.089966   7.151798   0.000000
    10  H    6.168531   7.500091   6.485972   1.851632   0.000000
    11  H    4.763370   6.045643   5.545717   2.454954   3.085972
    12  H    3.909573   4.838477   4.883869   4.096471   3.479857
    13  H    4.153808   5.298769   4.621226   3.732954   2.451654
    14  H    2.135524   2.652062   3.356298   5.993043   5.335637
    15  H    2.153046   2.929031   2.572726   6.068524   5.012567
    16  H    1.093347   2.193913   2.060139   6.451243   6.226869
    17  H    2.204423   1.091135   3.203022   8.421493   8.023340
    18  H    2.205134   1.097041   2.921537   8.322213   7.542043
    19  O    3.449969   3.440697   2.269313   9.285124   8.578143
    20  C    2.295656   2.286324   1.356626   8.502517   7.826759
    21  O    2.337079   1.436917   2.234439   9.011207   8.382995
                   11         12         13         14         15
    11  H    0.000000
    12  H    2.572466   0.000000
    13  H    3.101041   1.784297   0.000000
    14  H    4.050297   2.251209   3.097177   0.000000
    15  H    4.638814   2.955287   2.659955   1.786080   0.000000
    16  H    4.359625   4.068800   4.502652   2.618873   3.032001
    17  H    6.197261   5.138189   5.900708   3.000920   3.774765
    18  H    6.381154   4.747316   5.186791   2.526913   2.702576
    19  O    7.761974   7.113607   6.759284   5.389364   4.523326
    20  C    6.820007   6.048218   5.880168   4.230935   3.555287
    21  O    7.085893   6.071817   6.256095   3.969438   3.766954
                   16         17         18         19         20
    16  H    0.000000
    17  H    2.404431   0.000000
    18  H    3.065655   1.790079   0.000000
    19  O    3.923067   4.206264   3.975012   0.000000
    20  C    2.863161   3.110596   2.898681   1.200424   0.000000
    21  O    2.905415   2.067083   2.067245   2.267011   1.361096
                   21
    21  O    0.000000
 Symmetry turned off by external request.
 Stoichiometry    C7H10O4
 Framework group  C1[X(C7H10O4)]
 Deg. of freedom    57
 Full point group                 C1      NOp   1
 Rotational constants (GHZ):           3.4410732           0.4021104           0.3717546
 Basis read from rwf:  (5D, 7F)
 Pseudo-potential data read from rwf file.
   248 basis functions,   422 primitive gaussians,   259 cartesian basis functions
    42 alpha electrons       42 beta electrons
       nuclear repulsion energy       607.8571248921 Hartrees.
 NAtoms=   21 NActive=   21 NUniq=   21 SFac= 1.00D+00 NAtFMM=   60 NAOKFM=F Big=F
 Integral buffers will be    131072 words long.
 Raffenetti 2 integral format.
 Two-electron integral symmetry is turned off.
 One-electron integrals computed using PRISM.
   1 Symmetry operations used in ECPInt.
 ECPInt:  NShTT=    3655 NPrTT=   16881 LenC2=    3351 LenP2D=   10703.
 LDataN:  DoStor=T MaxTD1= 4 Len=   56
 NBasis=   248 RedAO= T EigKep=  2.03D-05  NBF=   248
 NBsUse=   248 1.00D-06 EigRej= -1.00D+00 NBFU=   248
 Initial guess from the checkpoint file:  "AGC_opt_freq_sin.chk"
 B after Tr=     0.024080   -0.021978   -0.033169
         Rot=    0.999994   -0.002476   -0.000118   -0.002503 Ang=  -0.40 deg.
 ExpMin= 4.38D-02 ExpMax= 5.48D+03 ExpMxC= 8.25D+02 IAcc=3 IRadAn=         5 AccDes= 0.00D+00
 Harris functional with IExCor=  402 and IRadAn=       5 diagonalized for initial guess.
 HarFok:  IExCor=  402 AccDes= 0.00D+00 IRadAn=         5 IDoV= 1 UseB2=F ITyADJ=14
 ICtDFT=  3500011 ScaDFX=  1.000000  1.000000  1.000000  1.000000
 FoFCou: FMM=F IPFlag=           0 FMFlag=      100000 FMFlg1=           0
         NFxFlg=           0 DoJE=T BraDBF=F KetDBF=T FulRan=T
         wScrn=  0.000000 ICntrl=       500 IOpCl=  0 I1Cent=   200000004 NGrid=           0
         NMat0=    1 NMatS0=      1 NMatT0=    0 NMatD0=    1 NMtDS0=    0 NMtDT0=    0
 Symmetry not used in FoFCou.
 Gradient too large for Newton-Raphson -- use scaled steepest descent instead.
     Accept linear search using points  3 and  4.
 Gradient too large for Newton-Raphson -- use scaled steepest descent instead.
     Accept linear search using points  2 and  3.
 Gradient too large for Newton-Raphson -- use scaled steepest descent instead.
     Accept linear search using points  1 and  2.
 Gradient too large for Newton-Raphson -- use scaled steepest descent instead.
     Accept linear search using points  1 and  2.
 LinEq1:  Iter=  0 NonCon=     1 RMS=1.03D-04 Max=1.79D-03 NDo=     1
 AX will form     1 AO Fock derivatives at one time.
 LinEq1:  Iter=  1 NonCon=     1 RMS=5.80D-05 Max=2.73D-03 NDo=     1
 LinEq1:  Iter=  2 NonCon=     1 RMS=1.41D-05 Max=1.29D-04 NDo=     1
 LinEq1:  Iter=  3 NonCon=     1 RMS=6.38D-06 Max=1.23D-04 NDo=     1
 LinEq1:  Iter=  4 NonCon=     1 RMS=3.71D-06 Max=1.27D-04 NDo=     1
 LinEq1:  Iter=  5 NonCon=     1 RMS=2.44D-06 Max=6.82D-05 NDo=     1
 LinEq1:  Iter=  6 NonCon=     1 RMS=9.14D-07 Max=1.87D-05 NDo=     1
 LinEq1:  Iter=  7 NonCon=     1 RMS=5.94D-07 Max=8.48D-06 NDo=     1
 LinEq1:  Iter=  8 NonCon=     1 RMS=3.29D-07 Max=4.71D-06 NDo=     1
 LinEq1:  Iter=  9 NonCon=     1 RMS=1.78D-07 Max=2.45D-06 NDo=     1
 LinEq1:  Iter= 10 NonCon=     1 RMS=5.78D-08 Max=6.94D-07 NDo=     1
 LinEq1:  Iter= 11 NonCon=     1 RMS=2.65D-08 Max=3.78D-07 NDo=     1
 LinEq1:  Iter= 12 NonCon=     1 RMS=1.26D-08 Max=2.18D-07 NDo=     1
 LinEq1:  Iter= 13 NonCon=     1 RMS=9.97D-09 Max=2.87D-07 NDo=     1
 LinEq1:  Iter= 14 NonCon=     0 RMS=3.89D-09 Max=4.77D-08 NDo=     1
 Linear equations converged to 1.315D-08 1.315D-07 after    14 iterations.
     Minimum is close to point  2 DX=  2.07D-04 DF= -5.12D-12 DXR=  2.07D-04 DFR=  4.39D-08 which will be used.
 LinEq1:  Iter=  0 NonCon=     1 RMS=2.41D-07 Max=3.89D-06 NDo=     1
 LinEq1:  Iter=  1 NonCon=     1 RMS=1.30D-07 Max=3.24D-06 NDo=     1
 LinEq1:  Iter=  2 NonCon=     1 RMS=8.94D-08 Max=3.10D-06 NDo=     1
 LinEq1:  Iter=  3 NonCon=     1 RMS=4.94D-08 Max=9.88D-07 NDo=     1
 LinEq1:  Iter=  4 NonCon=     1 RMS=2.95D-08 Max=6.40D-07 NDo=     1
 LinEq1:  Iter=  5 NonCon=     1 RMS=1.21D-08 Max=4.61D-07 NDo=     1
 LinEq1:  Iter=  6 NonCon=     1 RMS=8.95D-09 Max=2.56D-07 NDo=     1
 LinEq1:  Iter=  7 NonCon=     1 RMS=3.97D-09 Max=9.65D-08 NDo=     1
 LinEq1:  Iter=  8 NonCon=     1 RMS=2.06D-09 Max=3.05D-08 NDo=     1
 LinEq1:  Iter=  9 NonCon=     1 RMS=9.20D-10 Max=1.36D-08 NDo=     1
 LinEq1:  Iter= 10 NonCon=     1 RMS=5.01D-10 Max=7.14D-09 NDo=     1
 LinEq1:  Iter= 11 NonCon=     1 RMS=2.04D-10 Max=3.28D-09 NDo=     1
 LinEq1:  Iter= 12 NonCon=     1 RMS=1.28D-10 Max=2.60D-09 NDo=     1
 LinEq1:  Iter= 13 NonCon=     0 RMS=8.17D-11 Max=1.78D-09 NDo=     1
 Linear equations converged to 2.518D-10 2.518D-09 after    13 iterations.
 SCF Done:  E(RB3LYP) =  -573.651853761     a.u. after    7 cycles
            Convg  =    0.1029D-09                    42 Fock formations.
              S**2 =  0.0000                  -V/T =  2.0069
 DoSCS=F DFT=T ScalE2(SS,OS)=  1.000000  1.000000
 Range of M.O.s used for correlation:     1   248
 NBasis=   248 NAE=    42 NBE=    42 NFC=     0 NFV=     0
 NROrb=    248 NOA=    42 NOB=    42 NVA=   206 NVB=   206

 **** Warning!!: The largest alpha MO coefficient is  0.56792185D+02

   1 Symmetry operations used in ECPInt.
 ECPInt:  NShTT=    3655 NPrTT=   16881 LenC2=    3351 LenP2D=   10703.
 LDataN:  DoStor=T MaxTD1= 5 Len=  102
 Number of processors reduced to  60 by ecpmxn.
 Symmetrizing basis deriv contribution to polar:
 IMax=3 JMax=2 DiffMx= 0.00D+00
 G2DrvN: will do    22 centers at a time, making    1 passes.
 Calling FoFCou, ICntrl=  3107 FMM=F I1Cent=   0 AccDes= 0.00D+00.
 End of G2Drv F.D. properties file   721 does not exist.
 End of G2Drv F.D. properties file   722 does not exist.
 End of G2Drv F.D. properties file   788 does not exist.
          IDoAtm=111111111111111111111
          Differentiating once with respect to electric field.
                with respect to dipole field.
          Differentiating once with respect to nuclear coordinates.
 Keep R1 ints in memory in canonical form, NReq=546145012.
          There are    66 degrees of freedom in the 1st order CPHF.  IDoFFX=6 NUNeed=     3.
     63 vectors produced by pass  0 Test12= 1.31D-14 1.52D-09 XBig12= 8.07D+01 4.74D+00.
 AX will form    63 AO Fock derivatives at one time.
     63 vectors produced by pass  1 Test12= 1.31D-14 1.52D-09 XBig12= 1.51D+01 9.11D-01.
     63 vectors produced by pass  2 Test12= 1.31D-14 1.52D-09 XBig12= 1.61D-01 5.68D-02.
     63 vectors produced by pass  3 Test12= 1.31D-14 1.52D-09 XBig12= 6.43D-04 4.01D-03.
     63 vectors produced by pass  4 Test12= 1.31D-14 1.52D-09 XBig12= 1.34D-06 1.93D-04.
     50 vectors produced by pass  5 Test12= 1.31D-14 1.52D-09 XBig12= 1.27D-09 3.20D-06.
      3 vectors produced by pass  6 Test12= 1.31D-14 1.52D-09 XBig12= 1.17D-12 1.24D-07.
      3 vectors produced by pass  7 Test12= 1.31D-14 1.52D-09 XBig12= 1.09D-15 2.76D-09.
 InvSVY:  IOpt=1 It=  1 EMax= 1.78D-15
 Solved reduced A of dimension   371 with    66 vectors.
 Isotropic polarizability for W=    0.000000       97.71 Bohr**3.
 End of Minotr F.D. properties file   721 does not exist.
 End of Minotr F.D. properties file   722 does not exist.
 End of Minotr F.D. properties file   788 does not exist.
   1 Symmetry operations used in ECPInt.
 ECPInt:  NShTT=    3655 NPrTT=   16881 LenC2=    3351 LenP2D=   10703.
 LDataN:  DoStor=T MaxTD1= 6 Len=  172
 Calling FoFJK, ICntrl=    100127 FMM=F ISym2X=0 I1Cent= 0 IOpClX= 0 NMat=1 NMatS=1 NMatT=0.
 -------------------------------------------------------------------
 Center     Atomic                   Forces (Hartrees/Bohr)
 Number     Number              X              Y              Z
 -------------------------------------------------------------------
      1        6          -0.000148529    0.000017291    0.000017664
      2        6           0.000565635    0.000060443   -0.000349666
      3        6           0.000030311    0.000329826   -0.000567706
      4        8          -0.000670756    0.000417278    0.001145983
      5        6          -0.000137986   -0.000575354   -0.001081142
      6        6           0.003040898    0.000615525   -0.000504322
      7        6           0.001826997    0.000097771    0.000261159
      8        8          -0.003794906    0.001045292   -0.000574438
      9        1           0.000080375    0.000088631   -0.000044697
     10        1           0.000038133   -0.000025598    0.000014464
     11        1          -0.000096081   -0.000024770   -0.000303243
     12        1           0.000385496    0.000132978   -0.000294470
     13        1          -0.000290869   -0.000733864    0.000519911
     14        1          -0.000355860    0.000533066    0.000341092
     15        1          -0.000358423   -0.000308790    0.000416855
     16        1          -0.000793778   -0.000897559   -0.000325986
     17        1           0.000362106    0.000176476    0.000655507
     18        1          -0.000146380   -0.000218322   -0.000092557
     19        8          -0.003600981    0.002400844    0.000774040
     20        6           0.006896501   -0.003562465   -0.001608713
     21        8          -0.002831903    0.000431301    0.001600263
 -------------------------------------------------------------------
 Cartesian Forces:  Max     0.006896501 RMS     0.001440996

 GradGradGradGradGradGradGradGradGradGradGradGradGradGradGradGradGradGrad
 Berny optimization.
 Search for a local minimum.
 Step number   2 out of a maximum of   73
 All quantities printed in internal units (Hartrees-Bohrs-Radians)
 Second derivative matrix not updated -- analytic derivatives used.
 DE= -7.54D-04 DEPred=-7.57D-04 R= 9.96D-01
 TightC=F SS=  1.41D+00  RLast= 2.95D-01 DXNew= 5.0454D-01 8.8438D-01
 Trust test= 9.96D-01 RLast= 2.95D-01 DXMaxT set to 5.05D-01
 ITU=  1  0
     Eigenvalues ---    0.00021   0.00033   0.00095   0.00133   0.00249
     Eigenvalues ---    0.00368   0.00830   0.00992   0.01272   0.01926
     Eigenvalues ---    0.02235   0.02682   0.03610   0.04070   0.04637
     Eigenvalues ---    0.05909   0.06243   0.06731   0.07646   0.07850
     Eigenvalues ---    0.08641   0.09173   0.10051   0.10777   0.12390
     Eigenvalues ---    0.12902   0.13396   0.14897   0.17000   0.17348
     Eigenvalues ---    0.18526   0.21117   0.21402   0.23932   0.26642
     Eigenvalues ---    0.28367   0.32023   0.33683   0.40702   0.49238
     Eigenvalues ---    0.52151   0.56034   0.59494   0.64656   0.65813
     Eigenvalues ---    0.70911   0.73510   0.75578   0.76420   0.78546
     Eigenvalues ---    0.81963   0.83975   0.86438   0.92935   0.97104
     Eigenvalues ---    1.47122   1.78093
 RFO step:  Lambda=-3.20591811D-04 EMin= 2.11303045D-04
 Quintic linear search produced a step of  1.01246.
 Maximum step size (   0.505) exceeded in Quadratic search.
    -- Step size scaled by   0.770
 B after Tr=    -0.005377   -0.000534   -0.000648
         Rot=    0.999999    0.000061   -0.001436    0.000052 Ang=   0.16 deg.
 Variable       Old X    -DE/DX   Delta X   Delta X   Delta X     New X
                                 (Linear)    (Quad)   (Total)
    X1       -2.73239  -0.00015   0.02102   0.11720   0.11204  -2.62036
    Y1        8.70973   0.00002   0.02300   0.01764   0.03945   8.74918
    Z1       -7.49774   0.00002  -0.02547  -0.04078  -0.06050  -7.55825
    X2       -2.42139   0.00057   0.00868   0.02510   0.01434  -2.40705
    Y2        7.91794   0.00006   0.00142   0.00388   0.00438   7.92232
    Z2       -5.12287  -0.00035  -0.03114  -0.03322  -0.05910  -5.18198
    X3       -0.63274   0.00003  -0.00597  -0.01453  -0.03427  -0.66701
    Y3        9.09692   0.00033  -0.02006  -0.02857  -0.04949   9.04743
    Z3       -3.26839  -0.00057  -0.00330   0.02508   0.02191  -3.24649
    X4        0.97431  -0.00067  -0.09010  -0.07728  -0.17811   0.79621
    Y4        7.17018   0.00042  -0.05944  -0.04847  -0.10878   7.06140
    Z4       -2.26935   0.00115   0.07535   0.07366   0.14518  -2.12416
    X5        2.30408  -0.00014  -0.05358  -0.07368  -0.13176   2.17232
    Y5        7.91884  -0.00058  -0.02668  -0.03383  -0.06126   7.85758
    Z5       -0.08135  -0.00108   0.03966   0.06532   0.09712   0.01576
    X6        3.61309   0.00304  -0.01107  -0.04545  -0.05804   3.55504
    Y6        5.63527   0.00062  -0.01047  -0.01562  -0.02685   5.60842
    Z6        1.04965  -0.00050   0.03160   0.06333   0.08338   1.13303
    X7        4.41601   0.00183   0.03909   0.05618   0.10158   4.51759
    Y7        6.00281   0.00010   0.00617   0.04160   0.04723   6.05004
    Z7        3.81528   0.00026   0.01735   0.02596   0.02894   3.84422
    X8        5.99937  -0.00379  -0.04029  -0.08946  -0.13522   5.86415
    Y8        5.11664   0.00105   0.00903  -0.04445  -0.03659   5.08004
    Z8       -0.18508  -0.00057  -0.00792  -0.01489  -0.04093  -0.22601
    X9       -4.09601   0.00008   0.02130   0.14372   0.13499  -3.96103
    Y9        7.82687   0.00009   0.03724   0.04677   0.08280   7.90967
    Z9       -8.75197  -0.00004  -0.03581  -0.08997  -0.11608  -8.86805
   X10       -1.63799   0.00004   0.02984   0.16930   0.17107  -1.46692
   Y10       10.26981  -0.00003   0.02397   0.00206   0.02463  10.29445
   Z10       -8.26856   0.00001  -0.01054   0.00148  -0.00681  -8.27536
   X11       -3.51910  -0.00010  -0.00684  -0.02450  -0.04904  -3.56814
   Y11        6.33507  -0.00002   0.00116   0.02046   0.02090   6.35596
   Z11       -4.39723  -0.00030  -0.05314  -0.07356  -0.11791  -4.51514
   X12       -1.71293   0.00039  -0.02156  -0.04618  -0.07711  -1.79004
   Y12        9.95414   0.00013   0.04326  -0.00903   0.03367   9.98780
   Z12       -1.70059  -0.00029  -0.04250  -0.01097  -0.05023  -1.75082
   X13        0.49250  -0.00029   0.06506   0.03964   0.08862   0.58112
   Y13       10.60068  -0.00073  -0.06679  -0.05149  -0.11939  10.48129
   Z13       -4.16785   0.00052   0.00049   0.06069   0.05754  -4.11030
   X14        0.97588  -0.00036  -0.02990  -0.06989  -0.10006   0.87582
   Y14        8.67624   0.00053  -0.00726  -0.04262  -0.05032   8.62592
   Z14        1.33836   0.00034   0.05782   0.07223   0.12583   1.46419
   X15        3.71276  -0.00036  -0.06567  -0.08997  -0.16136   3.55140
   Y15        9.39543  -0.00031  -0.02523  -0.02355  -0.04973   9.34570
   Z15       -0.50126   0.00042   0.00174   0.04923   0.03897  -0.46229
   X16        2.41353  -0.00079  -0.01179  -0.05407  -0.06794   2.34559
   Y16        3.97059  -0.00090  -0.02197  -0.01861  -0.04123   3.92936
   Z16        0.80719  -0.00033   0.05765   0.14192   0.19170   0.99888
   X17        3.14400   0.00036   0.04923   0.11782   0.17742   3.32141
   Y17        5.08234   0.00018   0.04604   0.05283   0.09864   5.18098
   Z17        5.15182   0.00066   0.06029   0.08904   0.13852   5.29033
   X18        4.64157  -0.00015   0.07296   0.05789   0.13862   4.78019
   Y18        8.00010  -0.00022   0.01176   0.05152   0.06277   8.06287
   Z18        4.32296  -0.00009  -0.01197  -0.01867  -0.04600   4.27696
   X19        9.81373  -0.00360   0.01024  -0.03296  -0.02521   9.78852
   Y19        3.62163   0.00240   0.05947   0.01400   0.07203   3.69366
   Z19        1.08210   0.00077  -0.06760  -0.12837  -0.22519   0.85691
   X20        7.75131   0.00690   0.00640  -0.02062  -0.01499   7.73631
   Y20        4.43715  -0.00356   0.00894   0.01426   0.02205   4.45919
   Z20        1.55885  -0.00161  -0.03698  -0.06705  -0.12745   1.43140
   X21        6.84637  -0.00283   0.01298   0.07523   0.09445   6.94082
   Y21        4.79812   0.00043  -0.03358   0.06945   0.03509   4.83322
   Z21        3.93929   0.00160  -0.01558  -0.04213  -0.07889   3.86040
         Item               Value     Threshold  Converged?
 Maximum Force            0.006897     0.000015     NO 
 RMS     Force            0.001441     0.000010     NO 
 Maximum Displacement     0.225190     0.000060     NO 
 RMS     Displacement     0.094594     0.000040     NO 
 Predicted change in Energy=-5.685325D-04
 GradGradGradGradGradGradGradGradGradGradGradGradGradGradGradGradGradGrad

                          Input orientation:                          
 ---------------------------------------------------------------------
 Center     Atomic      Atomic             Coordinates (Angstroms)
 Number     Number       Type             X           Y           Z
 ---------------------------------------------------------------------
      1          6           0       -1.386633    4.629867   -3.999651
      2          6           0       -1.273756    4.192312   -2.742184
      3          6           0       -0.352966    4.787694   -1.717967
      4          8           0        0.421334    3.736733   -1.124060
      5          6           0        1.149541    4.158051    0.008342
      6          6           0        1.881248    2.967847    0.599573
      7          6           0        2.390606    3.201545    2.034275
      8          8           0        3.103174    2.688243   -0.119601
      9          1           0       -2.096085    4.185619   -4.692768
     10          1           0       -0.776259    5.447586   -4.379134
     11          1           0       -1.888180    3.363431   -2.389307
     12          1           0       -0.947249    5.285319   -0.926493
     13          1           0        0.307513    5.546460   -2.175078
     14          1           0        0.463464    4.564641    0.774817
     15          1           0        1.879322    4.945530   -0.244634
     16          1           0        1.241233    2.079327    0.528586
     17          1           0        1.757616    2.741657    2.799523
     18          1           0        2.529568    4.266688    2.263270
     19          8           0        5.179863    1.954599    0.453460
     20          6           0        4.093881    2.359703    0.757465
     21          8           0        3.672922    2.557629    2.042838
 ---------------------------------------------------------------------
                    Distance matrix (angstroms):
                    1          2          3          4          5
     1  C    0.000000
     2  C    1.336196   0.000000
     3  C    2.509873   1.500452   0.000000
     4  O    3.512188   2.387302   1.434150   0.000000
     5  C    4.766424   3.665916   2.373630   1.410719   0.000000
     6  C    5.881685   4.756123   3.697911   2.386094   1.517081
     7  C    7.260571   6.101125   4.911453   3.760257   2.561161
     8  O    6.243642   5.319557   4.348261   3.049678   2.448139
     9  H    1.086780   2.116848   3.500057   4.390282   5.712730
    10  H    1.088682   2.121985   2.774247   3.867397   4.962011
    11  H    2.109175   1.090451   2.199114   2.659711   3.950683
    12  H    3.172850   2.144296   1.107805   2.076095   2.557573
    13  H    2.653175   2.157716   1.104948   2.095878   2.721032
    14  H    5.120807   3.940287   2.632543   2.071941   1.106120
    15  H    4.986607   4.092309   2.679315   2.088134   1.103041
    16  H    5.823733   4.635495   3.863123   2.480013   2.144796
    17  H    7.725310   6.481060   5.389669   4.262666   3.188513
    18  H    7.395452   6.286921   4.942742   4.024861   2.645936
    19  O    8.372940   7.541134   6.584354   5.320542   4.614848
    20  C    7.603936   6.664648   5.638914   4.350166   3.530492
    21  O    8.148923   7.073772   5.943451   4.689600   3.614965
                    6          7          8          9         10
     6  C    0.000000
     7  C    1.540269   0.000000
     8  O    1.445162   2.326029   0.000000
     9  H    6.731346   8.145668   7.084370   0.000000
    10  H    6.164331   7.497036   6.388083   1.852800   0.000000
    11  H    4.826850   6.156484   5.524587   2.454618   3.088605
    12  H    3.962316   4.924381   4.878709   4.088275   3.460679
    13  H    4.101777   5.249433   4.495566   3.737370   2.458089
    14  H    2.142562   2.675470   3.359899   6.048920   5.373985
    15  H    2.150330   2.914845   2.570757   6.013919   4.939459
    16  H    1.097327   2.201711   2.063431   6.544975   6.284994
    17  H    2.215000   1.094431   3.214757   8.548126   8.079337
    18  H    2.207984   1.098308   2.915234   8.354023   7.512958
    19  O    3.453821   3.440030   2.275801   9.186976   8.427948
    20  C    2.300112   2.289124   1.363335   8.447171   7.722560
    21  O    2.336961   1.434934   2.240048   9.016661   8.329993
                   11         12         13         14         15
    11  H    0.000000
    12  H    2.592070   0.000000
    13  H    3.103639   1.789298   0.000000
    14  H    4.121264   2.324638   3.112904   0.000000
    15  H    4.614838   2.927437   2.560920   1.785780   0.000000
    16  H    4.467242   4.145490   4.494734   2.615787   3.036468
    17  H    6.372000   5.260200   5.892060   3.016212   3.760154
    18  H    6.479108   4.827054   5.125844   2.563797   2.678289
    19  O    7.747475   7.109111   6.599278   5.400001   4.508500
    20  C    6.833352   6.066954   5.752548   4.247585   3.548940
    21  O    7.156751   6.132144   6.168460   3.992066   3.761861
                   16         17         18         19         20
    16  H    0.000000
    17  H    2.421257   0.000000
    18  H    3.074652   1.791424   0.000000
    19  O    3.941320   4.223180   3.955406   0.000000
    20  C    2.875517   3.126344   2.889830   1.198285   0.000000
    21  O    2.904280   2.067568   2.068026   2.271705   1.366955
                   21
    21  O    0.000000
 Symmetry turned off by external request.
 Stoichiometry    C7H10O4
 Framework group  C1[X(C7H10O4)]
 Deg. of freedom    57
 Full point group                 C1      NOp   1
 Rotational constants (GHZ):           3.3018986           0.4067565           0.3736506
 Basis read from rwf:  (5D, 7F)
 Pseudo-potential data read from rwf file.
   248 basis functions,   422 primitive gaussians,   259 cartesian basis functions
    42 alpha electrons       42 beta electrons
       nuclear repulsion energy       607.6271119907 Hartrees.
 NAtoms=   21 NActive=   21 NUniq=   21 SFac= 1.00D+00 NAtFMM=   60 NAOKFM=F Big=F
 Integral buffers will be    131072 words long.
 Raffenetti 2 integral format.
 Two-electron integral symmetry is turned off.
 One-electron integrals computed using PRISM.
   1 Symmetry operations used in ECPInt.
 ECPInt:  NShTT=    3655 NPrTT=   16881 LenC2=    3350 LenP2D=   10696.
 LDataN:  DoStor=T MaxTD1= 4 Len=   56
 NBasis=   248 RedAO= T EigKep=  2.06D-05  NBF=   248
 NBsUse=   248 1.00D-06 EigRej= -1.00D+00 NBFU=   248
 Initial guess from the checkpoint file:  "AGC_opt_freq_sin.chk"
 B after Tr=     0.012092   -0.021536   -0.025243
         Rot=    0.999992   -0.001966   -0.002818   -0.002279 Ang=  -0.47 deg.
 ExpMin= 4.38D-02 ExpMax= 5.48D+03 ExpMxC= 8.25D+02 IAcc=3 IRadAn=         5 AccDes= 0.00D+00
 Harris functional with IExCor=  402 and IRadAn=       5 diagonalized for initial guess.
 HarFok:  IExCor=  402 AccDes= 0.00D+00 IRadAn=         5 IDoV= 1 UseB2=F ITyADJ=14
 ICtDFT=  3500011 ScaDFX=  1.000000  1.000000  1.000000  1.000000
 FoFCou: FMM=F IPFlag=           0 FMFlag=      100000 FMFlg1=           0
         NFxFlg=           0 DoJE=T BraDBF=F KetDBF=T FulRan=T
         wScrn=  0.000000 ICntrl=       500 IOpCl=  0 I1Cent=   200000004 NGrid=           0
         NMat0=    1 NMatS0=      1 NMatT0=    0 NMatD0=    1 NMtDS0=    0 NMtDT0=    0
 Symmetry not used in FoFCou.
 Gradient too large for Newton-Raphson -- use scaled steepest descent instead.
     Accept linear search using points  3 and  4.
     Minimum is close to point  4 DX= -8.39D-02 DF= -1.32D-05 DXR=  7.52D-02 DFR=  1.62D-03 which will be used.
 Gradient too large for Newton-Raphson -- use scaled steepest descent instead.
 Gradient too large for Newton-Raphson -- use scaled steepest descent instead.
     Accept linear search using points  1 and  2.
     Minimum is close to point  2 DX= -5.61D-03 DF= -2.10D-08 DXR=  6.28D-03 DFR=  3.14D-05 which will be used.
 Gradient too large for Newton-Raphson -- use scaled steepest descent instead.
     Accept linear search using points  1 and  2.
 Gradient too large for Newton-Raphson -- use scaled steepest descent instead.
 Gradient too large for Newton-Raphson -- use scaled steepest descent instead.
     Accept linear search using points  1 and  2.
 LinEq1:  Iter=  0 NonCon=     1 RMS=1.18D-04 Max=2.92D-03 NDo=     1
 AX will form     1 AO Fock derivatives at one time.
 LinEq1:  Iter=  1 NonCon=     1 RMS=2.64D-05 Max=1.12D-03 NDo=     1
 LinEq1:  Iter=  2 NonCon=     1 RMS=1.70D-05 Max=5.98D-04 NDo=     1
 LinEq1:  Iter=  3 NonCon=     1 RMS=8.59D-06 Max=1.98D-04 NDo=     1
 LinEq1:  Iter=  4 NonCon=     1 RMS=6.35D-06 Max=1.57D-04 NDo=     1
 LinEq1:  Iter=  5 NonCon=     1 RMS=2.50D-06 Max=4.24D-05 NDo=     1
 LinEq1:  Iter=  6 NonCon=     1 RMS=1.46D-06 Max=3.23D-05 NDo=     1
 LinEq1:  Iter=  7 NonCon=     1 RMS=8.35D-07 Max=1.43D-05 NDo=     1
 LinEq1:  Iter=  8 NonCon=     1 RMS=4.26D-07 Max=8.03D-06 NDo=     1
 LinEq1:  Iter=  9 NonCon=     1 RMS=1.72D-07 Max=4.10D-06 NDo=     1
 LinEq1:  Iter= 10 NonCon=     1 RMS=1.02D-07 Max=1.61D-06 NDo=     1
 LinEq1:  Iter= 11 NonCon=     1 RMS=5.08D-08 Max=9.60D-07 NDo=     1
 LinEq1:  Iter= 12 NonCon=     1 RMS=2.94D-08 Max=8.87D-07 NDo=     1
 LinEq1:  Iter= 13 NonCon=     1 RMS=1.74D-08 Max=4.29D-07 NDo=     1
 LinEq1:  Iter= 14 NonCon=     0 RMS=8.55D-09 Max=1.29D-07 NDo=     1
 Linear equations converged to 1.315D-08 1.315D-07 after    14 iterations.
     Accept linear search using points  1 and  2.
     Minimum is close to point  2 DX= -5.88D-05 DF= -4.55D-13 DXR=  5.88D-05 DFR=  3.24D-09 which will be used.
 LinEq1:  Iter=  0 NonCon=     1 RMS=2.69D-07 Max=6.51D-06 NDo=     1
 LinEq1:  Iter=  1 NonCon=     1 RMS=1.33D-07 Max=3.07D-06 NDo=     1
 LinEq1:  Iter=  2 NonCon=     1 RMS=1.09D-07 Max=3.68D-06 NDo=     1
 LinEq1:  Iter=  3 NonCon=     1 RMS=5.28D-08 Max=1.05D-06 NDo=     1
 LinEq1:  Iter=  4 NonCon=     1 RMS=3.80D-08 Max=8.55D-07 NDo=     1
 LinEq1:  Iter=  5 NonCon=     1 RMS=1.71D-08 Max=4.21D-07 NDo=     1
 LinEq1:  Iter=  6 NonCon=     1 RMS=1.27D-08 Max=3.41D-07 NDo=     1
 LinEq1:  Iter=  7 NonCon=     1 RMS=5.68D-09 Max=1.33D-07 NDo=     1
 LinEq1:  Iter=  8 NonCon=     1 RMS=3.73D-09 Max=9.33D-08 NDo=     1
 LinEq1:  Iter=  9 NonCon=     1 RMS=1.64D-09 Max=3.03D-08 NDo=     1
 LinEq1:  Iter= 10 NonCon=     1 RMS=7.93D-10 Max=1.20D-08 NDo=     1
 LinEq1:  Iter= 11 NonCon=     1 RMS=3.18D-10 Max=5.07D-09 NDo=     1
 LinEq1:  Iter= 12 NonCon=     0 RMS=1.02D-10 Max=1.66D-09 NDo=     1
 Linear equations converged to 2.939D-10 2.939D-09 after    12 iterations.
 SCF Done:  E(RB3LYP) =  -573.652353285     a.u. after    9 cycles
            Convg  =    0.9292D-10                    43 Fock formations.
              S**2 =  0.0000                  -V/T =  2.0070
 DoSCS=F DFT=T ScalE2(SS,OS)=  1.000000  1.000000
 Range of M.O.s used for correlation:     1   248
 NBasis=   248 NAE=    42 NBE=    42 NFC=     0 NFV=     0
 NROrb=    248 NOA=    42 NOB=    42 NVA=   206 NVB=   206

 **** Warning!!: The largest alpha MO coefficient is  0.62711390D+02

   1 Symmetry operations used in ECPInt.
 ECPInt:  NShTT=    3655 NPrTT=   16881 LenC2=    3350 LenP2D=   10696.
 LDataN:  DoStor=T MaxTD1= 5 Len=  102
 Number of processors reduced to  60 by ecpmxn.
 Symmetrizing basis deriv contribution to polar:
 IMax=3 JMax=2 DiffMx= 0.00D+00
 G2DrvN: will do    22 centers at a time, making    1 passes.
 Calling FoFCou, ICntrl=  3107 FMM=F I1Cent=   0 AccDes= 0.00D+00.
 End of G2Drv F.D. properties file   721 does not exist.
 End of G2Drv F.D. properties file   722 does not exist.
 End of G2Drv F.D. properties file   788 does not exist.
          IDoAtm=111111111111111111111
          Differentiating once with respect to electric field.
                with respect to dipole field.
          Differentiating once with respect to nuclear coordinates.
 Keep R1 ints in memory in canonical form, NReq=546145012.
          There are    66 degrees of freedom in the 1st order CPHF.  IDoFFX=6 NUNeed=     3.
     63 vectors produced by pass  0 Test12= 1.31D-14 1.52D-09 XBig12= 8.16D+01 4.77D+00.
 AX will form    63 AO Fock derivatives at one time.
     63 vectors produced by pass  1 Test12= 1.31D-14 1.52D-09 XBig12= 1.54D+01 9.30D-01.
     63 vectors produced by pass  2 Test12= 1.31D-14 1.52D-09 XBig12= 1.66D-01 5.83D-02.
     63 vectors produced by pass  3 Test12= 1.31D-14 1.52D-09 XBig12= 6.80D-04 4.04D-03.
     63 vectors produced by pass  4 Test12= 1.31D-14 1.52D-09 XBig12= 1.40D-06 1.60D-04.
     53 vectors produced by pass  5 Test12= 1.31D-14 1.52D-09 XBig12= 1.35D-09 3.28D-06.
      3 vectors produced by pass  6 Test12= 1.31D-14 1.52D-09 XBig12= 1.24D-12 1.25D-07.
      2 vectors produced by pass  7 Test12= 1.31D-14 1.52D-09 XBig12= 1.13D-15 2.91D-09.
 InvSVY:  IOpt=1 It=  1 EMax= 5.33D-15
 Solved reduced A of dimension   373 with    66 vectors.
 Isotropic polarizability for W=    0.000000       97.89 Bohr**3.
 End of Minotr F.D. properties file   721 does not exist.
 End of Minotr F.D. properties file   722 does not exist.
 End of Minotr F.D. properties file   788 does not exist.
   1 Symmetry operations used in ECPInt.
 ECPInt:  NShTT=    3655 NPrTT=   16881 LenC2=    3350 LenP2D=   10696.
 LDataN:  DoStor=T MaxTD1= 6 Len=  172
 Calling FoFJK, ICntrl=    100127 FMM=F ISym2X=0 I1Cent= 0 IOpClX= 0 NMat=1 NMatS=1 NMatT=0.
 -------------------------------------------------------------------
 Center     Atomic                   Forces (Hartrees/Bohr)
 Number     Number              X              Y              Z
 -------------------------------------------------------------------
      1        6           0.000227672   -0.000235586    0.000865081
      2        6           0.000190700   -0.000164833   -0.000511671
[...]
 .00006176,0.00013548,-0.00001419,-0.00001574,-0.00000452,0.00002602,0.
 00000351,-0.00005397,-0.00553789,-0.00467506,0.00466165,0.15102574,0.1
 9699947,0.04640521,0.05999319,-0.08032511,0.01958517,0.02324889,-0.005
 28906,0.00307315,0.00054086,0.00062136,-0.00011516,-0.00049217,0.00066
 642,-0.00003298,-0.00013946,-0.00007787,0.00000202,0.00005701,0.000044
 10,-0.00000222,-0.00000450,-0.00001453,0.00003515,-0.00002977,0.000018
 68,-0.01240686,-0.01433963,0.00840599,-0.05344686,-0.07077018,0.080466
 83,0.00423471,-0.00148750,-0.00104732,-0.15609805,-0.13457515,0.046283
 15,-0.00870961,-0.01350681,0.00531577,0.00145251,0.00045122,0.00117276
 ,-0.00007469,0.00023514,-0.00021871,-0.00003735,-0.00004535,-0.0000435
 3,0.00000224,-0.00000400,-0.00000725,0.00006417,0.00002566,0.00003137,
 -0.00321724,0.00429547,0.00136128,0.00650096,-0.00497659,-0.00197237,0
 .15603403,-0.00786836,-0.00236680,0.00158844,-0.13425509,-0.19567248,0
 .05740202,-0.00791786,-0.00794056,0.00591031,0.00015883,0.00128796,-0.
 00074378,0.00007463,0.00035344,0.00007243,0.00002607,-0.00006698,-0.00
 008060,-0.00000632,0.00001677,0.00003977,-0.00009447,0.00004639,-0.000
 05700,0.00416543,-0.00288100,-0.00111488,-0.00459994,0.00573577,0.0026
 5552,0.15084460,0.20110543,0.02004617,0.02390526,-0.00617524,0.0447118
 8,0.05617748,-0.07653474,-0.01617142,-0.01745449,0.00743546,0.00167026
 ,0.00023799,0.00123496,-0.00009809,-0.00005780,-0.00007546,0.00005747,
 0.00005002,-0.00000605,-0.00000075,-0.00000806,0.00002280,-0.00001456,
 0.00000941,-0.00002564,0.00110739,-0.00134620,0.00072693,-0.00175640,0
 .00310063,-0.00410567,-0.04768795,-0.06392309,0.07985561,-0.00108486,-
 0.00089648,-0.00105668,0.01283377,-0.00837282,-0.01383455,-0.12557455,
 0.05069502,0.09271979,-0.01519381,0.02025325,0.00105199,0.00194228,0.0
 0154121,0.00438598,0.00005100,-0.00012742,-0.00033236,-0.00005971,0.00
 012613,0.00006715,-0.00004246,-0.00007540,-0.00015655,-0.00101335,0.00
 122010,0.00000077,0.00038100,-0.00022014,-0.00030917,0.00023073,0.0004
 6400,0.00088158,0.13925875,-0.00104367,-0.00087628,-0.00013458,0.00616
 612,-0.00301241,-0.01096811,0.05227433,-0.09216223,-0.06973110,0.02875
 831,-0.02560293,-0.00744531,-0.00264753,-0.00048378,-0.00391357,-0.000
 21699,0.00006237,0.00030023,0.00000813,-0.00005490,-0.00009568,0.00013
 314,0.00003659,0.00010551,-0.00020970,0.00051066,-0.00032020,0.0000811
 5,0.00004759,-0.00007309,0.00003376,0.00027764,0.00036691,-0.07165939,
 0.10969927,-0.00253880,-0.00233642,-0.00084601,0.01199396,-0.00841548,
 -0.01911174,0.09740168,-0.07340879,-0.16342999,-0.01393807,0.01085115,
 0.01044879,-0.00174300,0.00228059,0.00444652,0.00024134,0.00007267,0.0
 0034348,0.00003095,-0.00005734,-0.00003152,-0.00010144,-0.00002877,-0.
 00007522,-0.00153427,0.00147866,-0.00014262,0.00086826,-0.00103445,-0.
 00018687,-0.00059901,0.00001885,0.00076456,-0.09901652,0.07682451,0.17
 502041,0.00074700,0.00057626,0.00106366,-0.01194166,-0.01230669,0.0077
 2678,-0.16476698,-0.10735185,0.06142944,0.01268263,0.01629857,-0.01250
 400,0.00352780,0.00275120,0.00075813,0.00015216,0.00044460,-0.00004740
 ,-0.00004580,-0.00009591,0.00005452,-0.00001705,-0.00003969,0.00001682
 ,0.00044782,0.00012804,-0.00016403,0.00019665,0.00071681,-0.00078188,-
 0.00054257,-0.00111790,-0.00290929,-0.01134426,-0.01183913,0.00679776,
 0.17169768,0.00130777,0.00007445,0.00129117,-0.01110934,-0.00819995,0.
 00349124,-0.10419939,-0.14567044,0.05337862,-0.00537879,-0.02905845,0.
 02008298,-0.00252683,-0.00074174,-0.00381498,0.00012851,0.00030378,0.0
 0026864,-0.00000666,0.00000648,-0.00011710,0.00032990,-0.00005054,-0.0
 0001513,0.00058941,-0.00003576,-0.00006493,-0.00018001,0.00079077,-0.0
 0064220,-0.00149923,0.00017317,-0.00123262,0.00803363,0.01064338,-0.00
 546718,0.11317844,0.17061207,-0.00059115,-0.00115707,0.00131274,-0.016
 69457,-0.01641538,0.00858878,0.06216256,0.05582489,-0.08480159,0.00055
 186,0.01738666,-0.00958505,0.00374230,0.00277994,0.00256590,-0.0003293
 2,-0.00015378,-0.00007524,-0.00003985,0.00005254,0.00005083,-0.0001845
 3,-0.00000055,-0.00006276,0.00010973,0.00010972,0.00022351,0.00057714,
 0.00039420,-0.00019558,-0.00276473,-0.00188226,-0.00312384,0.01681332,
 0.01299019,-0.00711580,-0.06270561,-0.06851714,0.09244671,-0.00004725,
 -0.00000872,0.00009777,0.00003055,-0.00016720,-0.00015972,0.00345871,-
 0.00297244,-0.00104571,0.01298702,-0.00709007,-0.02063431,-0.14763516,
 0.05208500,0.10288816,-0.00986153,0.00110690,0.01176088,-0.00049509,0.
 00113553,0.00102273,-0.00365333,0.00452306,-0.00244798,0.00000347,-0.0
 0000047,0.00001286,-0.00001953,0.00002620,0.00000714,0.00000856,-0.000
 00397,-0.00000742,0.00001287,0.00005139,0.00196372,-0.00067096,0.00025
 448,0.00012842,0.15556406,-0.00005432,-0.00003805,-0.00002745,0.000015
 92,0.00016344,0.00016221,-0.00046727,0.00027579,0.00220324,0.00210805,
 -0.00400766,-0.01687624,0.05024864,-0.07987042,-0.04968388,0.01648860,
 -0.00593584,-0.01765695,0.00013039,0.00044985,-0.00022607,0.00414453,-
 0.00346616,0.00282653,0.00000701,-0.00001374,-0.00003096,0.00000356,-0
 .00000785,0.00000650,0.00000527,-0.00003796,-0.00002868,-0.00049905,0.
 00063634,-0.00078962,-0.00019503,0.00013884,-0.00023405,-0.05575622,0.
 08253363,-0.00006446,0.00006255,0.00008049,-0.00052688,0.00047387,0.00
 025823,0.00449995,-0.00507528,0.00250389,0.00035533,-0.01607007,-0.037
 46800,0.10388158,-0.04882133,-0.15535895,-0.00519108,0.00215297,0.0078
 9719,-0.00062271,-0.00004910,0.00075233,-0.00327963,0.00285339,-0.0001
 6338,0.00008484,-0.00011446,-0.00004936,-0.00002867,0.00002044,0.00002
 354,0.00010699,-0.00005296,0.00000904,-0.00128664,0.00158764,0.0005158
 2,-0.00006684,0.00056058,-0.00030126,-0.10729801,0.06568874,0.18528848
 ,-0.00004867,0.00000058,-0.00004019,0.00004859,0.00055919,-0.00030569,
 0.00207835,-0.00388139,0.00255622,-0.01717696,-0.01560176,-0.01066128,
 -0.14650860,-0.10904379,0.04665357,0.00930568,0.01434701,-0.00519380,0
 .00106663,0.00016363,0.00074739,0.00206727,-0.00076957,0.00012821,0.00
 004031,-0.00002803,-0.00003156,0.00000264,0.00000561,-0.00004087,0.000
 21462,0.00011826,0.00018975,-0.00057868,0.00022290,0.00019137,0.000074
 52,0.00112283,-0.00080358,-0.01154177,-0.01458503,0.00880491,0.1627875
 1,-0.00007834,-0.00005333,-0.00008111,0.00015613,0.00038252,-0.0001469
 0,0.00281364,0.00063453,0.00034740,-0.01285632,-0.00843182,-0.00622393
 ,-0.10637841,-0.17262501,0.05116806,-0.01639692,-0.02208678,0.01018091
 ,-0.00009529,-0.00047016,-0.00173390,-0.00146092,0.00378033,-0.0011305
 3,0.00001356,-0.00001822,-0.00003904,-0.00000883,0.00001562,0.00000315
 ,0.00013327,-0.00004877,0.00015681,-0.00024283,0.00016178,0.00001322,-
 0.00108308,0.00077458,-0.00089040,0.00731916,0.00898527,-0.00312135,0.
 12458379,0.19112491,0.00003260,0.00004880,-0.00002882,-0.00007072,0.00
 004159,-0.00017023,0.00019172,-0.00505871,0.00358635,-0.02884838,-0.02
 431522,-0.00118197,0.04724272,0.05500168,-0.07235895,0.00945276,0.0084
 1031,-0.00311425,0.00106256,0.00107750,0.00096488,-0.00079756,-0.00154
 816,0.00041823,-0.00000094,0.00000810,-0.00000942,0.00002610,-0.000013
 66,-0.00004877,0.00013240,0.00015296,0.00001234,0.00002923,0.00053568,
 -0.00057822,0.00139742,0.00097392,0.00001038,0.01332369,0.01559440,-0.
 00509274,-0.04106765,-0.05120574,0.07809069,-0.00001293,-0.00000826,0.
 00000678,0.00000476,-0.00011145,0.00003425,0.00017090,0.00030044,-0.00
 008088,0.00067284,-0.00054773,0.00094933,0.01141582,0.01419284,-0.0025
 2227,-0.13084444,-0.12007807,-0.00291163,-0.00402468,-0.00980577,-0.00
 075282,-0.03185677,-0.01395883,0.00856227,-0.00000914,0.00000684,-0.00
 000235,0.00000563,-0.00000019,0.00000696,-0.00002528,-0.00001875,-0.00
 004318,0.00004972,0.00000225,-0.00000738,-0.00018549,-0.00010670,0.000
 04656,0.00050486,-0.00102389,0.00055213,-0.00163573,0.00261002,-0.0018
 9817,0.15353646,0.00000762,0.00001358,-0.00000028,0.00000966,0.0000295
 7,0.00001056,0.00031426,0.00015203,0.00017394,-0.00068798,0.00288087,-
 0.00165706,-0.01573689,-0.02387911,0.00136027,-0.12335551,-0.23124639,
 0.00290983,-0.00072388,-0.00254609,-0.00052793,0.00773870,0.01231016,0
 .00004563,0.00000845,-0.00000894,0.00000160,-0.00000263,0.00000736,-0.
 00001012,0.00005015,0.00001862,0.00004789,-0.00014223,0.00007784,-0.00
 001983,-0.00007396,0.00027689,-0.00026849,0.00031905,0.00030090,-0.000
 28334,0.00293758,-0.00289002,0.00131033,0.12957038,0.24250887,0.000011
 67,-0.00001028,0.00001676,0.00000692,-0.00009751,-0.00002433,-0.000123
 35,0.00015566,-0.00017396,0.00121242,-0.00060245,0.00097593,0.00516901
 ,0.01264572,0.00132340,-0.00599287,0.00048807,-0.04928926,-0.01434690,
 -0.02678771,-0.00146190,0.02557345,0.01187830,-0.00057022,-0.00000928,
 0.00000997,0.00000834,-0.00000169,-0.00000354,0.00000568,-0.00005151,0
 .00000130,-0.00002445,0.00011660,-0.00009086,-0.00002280,-0.00006304,-
 0.00016312,0.00009122,-0.00037885,0.00008774,-0.00003102,-0.00117601,0
 .00167440,-0.00050676,-0.00510935,-0.00139869,0.05609670,-0.00000946,-
 0.00000793,-0.00001154,0.00000264,0.00003218,-0.00000453,-0.00006116,-
 0.00009683,0.00002274,-0.00052176,0.00007361,-0.00021963,0.00021118,-0
 .00030532,-0.00008948,0.00986706,0.00695083,-0.00940329,-0.10960726,-0
 .05674865,0.09575498,0.00277345,-0.00131433,-0.00292490,0.00000130,-0.
 00000075,-0.00000507,-0.00000066,0.00000097,0.00000165,-0.00000165,-0.
 00000235,-0.00000156,-0.00001170,0.00001803,-0.00000025,0.00000653,0.0
 0000356,0.00000173,-0.00010333,0.00015680,0.00001977,0.00002282,-0.000
 21609,-0.00002393,0.00111916,0.00003419,0.00027673,0.12776852,0.000003
 89,-0.00000330,0.00000224,0.00001140,-0.00000578,-0.00000291,-0.000127
 18,0.00007113,-0.00002759,0.00027527,0.00017354,-0.00002383,-0.0004200
 6,-0.00051522,0.00005552,0.00226065,0.00281259,-0.00696406,-0.06253193
 ,-0.10529502,0.09584996,0.00037222,-0.00003246,-0.00244632,-0.00000008
 ,0.00000267,0.00000210,-0.00000204,0.00000083,-0.00000148,-0.00000331,
 0.00000577,0.00000281,0.00001249,-0.00001177,-0.00000318,0.00000238,-0
 .00001695,-0.00001289,0.00007019,-0.00010990,-0.00004012,0.00020422,0.
 00032933,-0.00017290,0.00037513,0.00088462,-0.00003355,0.05822265,0.10
 603682,-0.00002930,-0.00001215,-0.00001249,-0.00001198,0.00009582,-0.0
 0001950,-0.00007419,-0.00020943,-0.00006388,-0.00058517,0.00065587,-0.
 00018747,0.00006150,-0.00191976,-0.00135909,0.01326274,0.01147630,-0.0
 1574476,0.10271194,0.08829472,-0.20969386,0.00013972,-0.00100828,-0.00
 382948,0.00000755,-0.00000658,-0.00001117,0.,-0.00000228,0.00000366,-0
 .00000229,-0.00000974,-0.00000524,-0.00003335,0.00003617,0.00000320,0.
 00000369,0.00000033,-0.00000019,-0.00034944,0.00030796,0.00009914,0.00
 014310,-0.00007437,0.00017382,0.00010558,-0.00040063,0.00141643,-0.112
 20397,-0.09284220,0.22164385,0.00000330,0.00000573,0.00000220,-0.00001
 751,-0.00000578,0.00000962,0.00001549,0.00005493,-0.00007704,0.0001531
 0,0.00049679,0.00044977,0.00094503,-0.00136928,-0.00074456,-0.00431232
 ,-0.01413684,-0.00101595,-0.05491753,-0.05093387,-0.00641843,0.0024664
 4,-0.00130255,0.00036342,0.00000209,-0.00000161,0.00000077,0.00000071,
 0.00000204,-0.00000197,0.00000688,-0.00000010,0.00000278,-0.00002384,0
 .00000410,-0.00000936,-0.00000855,0.00001182,-0.00000941,-0.00032323,-
 0.00006312,0.00031764,0.00006807,0.00042402,-0.00015342,-0.00029253,-0
 .00000351,-0.00307788,0.00046747,-0.01502302,-0.00319594,0.06628460,0.
 00000058,0.00000936,0.00000681,-0.00001485,-0.00001592,0.00000543,-0.0
 0003394,0.00003848,-0.00008373,0.00016429,0.00022160,0.00024522,0.0013
 6268,0.00013786,0.00104042,-0.00330517,-0.00251526,-0.00102537,-0.0453
 9747,-0.29248872,-0.03774696,-0.00059861,0.00045908,-0.00106986,0.0000
 0322,-0.00000200,0.00000269,0.00000364,-0.00000312,-0.00000284,0.00000
 736,-0.00000101,-0.00000105,-0.00001382,-0.00000056,0.00000558,-0.0000
 0582,-0.00000201,-0.00000992,-0.00059148,0.00033616,-0.00020269,-0.000
 25616,0.00054578,-0.00047231,0.00035709,0.00080081,-0.00061683,-0.0036
 9944,-0.01146347,-0.00260437,0.03789734,0.31836736,0.00001304,0.000011
 24,0.00001590,0.00001044,-0.00004833,0.00000764,-0.00008509,0.00022813
 ,-0.00002086,0.00053159,0.00041933,0.00050150,-0.00016944,-0.00189207,
 0.00090754,-0.00777061,-0.02767260,-0.00241577,-0.00462146,-0.03692907
 ,-0.06329008,0.00087921,0.00073134,-0.00023842,0.00000017,0.00000311,0
 .00000812,0.00000098,-0.00000089,-0.00000490,0.00000827,0.00000554,0.0
 0000583,-0.00000802,0.00000109,-0.00001228,-0.00001452,0.00001280,-0.0
 0002971,-0.00026863,0.00030356,0.00019130,0.00028475,0.00045341,-0.000
 38884,-0.00134995,-0.00057990,-0.00419227,0.00412804,0.02396035,0.0057
 7927,0.00685835,0.04488569,0.06037401,-0.00022953,-0.00011214,-0.00017
 483,0.00005097,0.00038106,0.00002503,0.00103216,-0.00173926,0.00115726
 ,-0.00188273,0.00138228,-0.00225926,-0.00092455,-0.00076136,0.00465048
 ,0.00779110,-0.00015066,-0.01439575,0.00805923,-0.00128132,0.00299289,
 -0.08169448,0.03272712,-0.00160269,-0.00001930,-0.00002208,-0.00011478
 ,0.00002723,0.00002582,0.00003374,0.00004405,-0.00007452,-0.00001459,-
 0.00014287,0.00021467,-0.00006457,-0.00000870,0.00025189,-0.00011423,-
 0.00114685,0.00094780,-0.00057199,0.00013550,-0.00024650,-0.00024708,-
 0.00190565,0.00040999,0.00161513,-0.00106301,0.00052795,0.00045767,-0.
 00182426,0.00086851,0.00017668,0.71945390,0.00006849,0.00003610,0.0000
 7528,-0.00002744,-0.00012624,-0.00002534,-0.00038603,0.00052247,-0.000
 36378,0.00081524,-0.00043532,0.00084572,-0.00102566,0.00041771,-0.0004
 6157,-0.00016425,0.00585043,0.00386415,-0.00146918,0.00657318,-0.00209
 045,0.03131534,0.00691206,0.00063570,0.00001461,0.00000737,0.00004204,
 -0.00000584,-0.00000633,-0.00001744,0.00000020,0.00002801,0.00000525,0
 .00005939,-0.00007345,0.00002778,0.00001854,-0.00006995,0.00002665,0.0
 0005583,-0.00003768,-0.00002534,-0.00000754,0.00001800,0.00016107,0.00
 176105,-0.00084537,-0.00132059,0.00177619,-0.00097729,-0.00008790,-0.0
 0072596,-0.00009010,0.00022488,-0.25888116,0.13653835,0.00002028,0.000
 06552,0.00006827,-0.00002209,-0.00007478,-0.00000938,-0.00004130,0.000
 35927,-0.00020404,0.00066737,-0.00036938,0.00115664,-0.00121679,0.0008
 8848,0.00064923,-0.00048125,-0.00075601,-0.00457138,-0.00854916,0.0033
 1954,-0.00744820,-0.02132351,0.00724240,0.02607333,0.00000979,-0.00000
 741,0.00002267,0.00001463,-0.00003781,-0.00000664,0.00000577,-0.000003
 65,-0.00000479,-0.00000686,-0.00003456,0.00003529,0.00000334,-0.000086
 16,0.00001750,-0.00052742,0.00053438,-0.00012921,0.00012675,-0.0001067
 1,-0.00004300,-0.00074045,0.00009201,0.00077488,0.00296260,-0.00123415
 ,0.00027638,0.00232600,-0.00130698,0.00009435,-0.23566191,0.09727219,0
 .18536063,0.00044409,0.00016469,0.00028930,-0.00005431,-0.00069730,-0.
 00008213,-0.00222865,0.00337938,-0.00241731,0.00402090,-0.00283773,0.0
 0343834,-0.00312573,0.00005530,-0.00335058,-0.06407096,0.01866497,0.01
 369777,-0.02364317,0.01146585,0.03380650,-0.15533708,0.02727910,-0.040
 17992,0.00003203,0.00005513,0.00021349,-0.00006587,-0.00002479,-0.0000
 6614,-0.00009918,0.00015633,0.00004212,0.00041172,-0.00052894,0.000102
 73,0.00000356,-0.00044238,0.00020451,0.00234609,-0.00097507,0.00011545
 ,-0.00002775,0.00054804,0.00049220,0.00230552,0.00029900,-0.00248987,-
 0.00636260,0.00337107,-0.00117879,-0.00062228,-0.00008741,-0.00007759,
 -0.62286775,0.20669885,0.19959897,0.96816912,-0.00012151,-0.00005328,-
 0.00011260,0.00002682,0.00021962,0.00005415,0.00074001,-0.00099589,0.0
 0076651,-0.00186866,0.00087312,-0.00167391,0.00498326,-0.00137767,-0.0
 0193918,0.01402582,-0.01059417,-0.00224858,0.01317384,-0.01238383,-0.0
 1604515,0.02475154,-0.06504677,0.00639639,-0.00001910,-0.00001688,-0.0
 0007043,0.00001209,0.00001212,0.00002975,0.00001014,-0.00004713,-0.000
 00919,-0.00015807,0.00018134,-0.00003628,-0.00002315,0.00013384,-0.000
 04292,0.00038574,-0.00061920,0.00033112,0.00004188,-0.00014778,-0.0002
 0384,-0.00405078,0.00130329,0.00300851,-0.00235400,0.00028731,0.000500
 39,0.00420486,-0.00129915,-0.00082124,0.20629528,-0.16198198,-0.077339
 65,-0.28008543,0.31811546,0.00011310,-0.00012622,-0.00007923,0.0000094
 6,-0.00001193,-0.00001307,-0.00087632,0.00023210,-0.00042438,-0.000992
 41,0.00047394,-0.00251274,0.00551741,-0.00411773,-0.00723736,-0.009704
 77,0.00869254,0.03375146,0.05323736,-0.02016200,-0.00599307,-0.0738361
 8,0.01500615,-0.16753380,-0.00000624,0.00003595,0.00001749,-0.00007127
 ,0.00009912,-0.00000856,-0.00005722,0.00007320,0.00003570,0.00015980,-
 0.00007660,-0.00007018,0.00000269,0.00007526,0.00003205,0.00341219,-0.
 00291232,0.00086874,-0.00087229,0.00100538,0.00039117,0.00696355,-0.00
 102886,-0.00612173,-0.00795639,0.00024927,-0.00154022,-0.00833368,0.00
 578621,-0.00109096,0.20000225,-0.07759673,-0.17035265,-0.18571849,0.09
 771452,0.54142377,-0.00018633,-0.00013392,-0.00016424,-0.00000725,0.00
 045687,-0.00003688,0.00051471,-0.00156373,0.00054506,-0.00276083,0.002
 70584,-0.00339034,0.00174247,-0.00576942,-0.00222348,-0.04000246,0.020
 11206,-0.01507408,-0.16468690,0.05152456,-0.01807970,0.00306253,0.0034
 1216,-0.02086804,0.00000539,-0.00002565,-0.00009749,-0.00000219,0.0000
 4303,0.00002628,0.00001215,-0.00004852,-0.00000419,-0.00010174,0.00017
 708,-0.00003911,-0.00000434,0.00023706,-0.00010113,0.00058182,-0.00063
 759,0.00019830,-0.00039436,0.00046189,-0.00027554,0.00100698,-0.000972
 43,-0.00116134,-0.02449753,0.01239812,0.00077090,-0.00807115,0.0133394
 7,0.00147380,-0.02288447,0.02010932,0.06283525,-0.09922768,0.02002942,
 0.01900745,0.35590118,0.00005737,0.00005373,0.00006203,-0.00002672,-0.
 00014390,0.00001133,-0.00015401,0.00049055,-0.00027445,0.00081461,-0.0
 0042514,0.00134761,0.00015597,0.00135852,-0.00003909,0.00876308,0.0003
 7426,0.00606018,0.05235558,-0.09222253,0.00240483,0.00347606,0.0212815
 4,-0.00277346,0.00000529,0.00000321,0.00003393,0.00000606,-0.00001869,
 -0.00001199,0.00000570,0.00001373,0.00000072,0.00000242,-0.00005649,0.
 00002432,0.00001735,-0.00008245,0.00002005,-0.00074196,0.00032422,0.00
 012474,-0.00013422,0.00001923,-0.00032581,0.00053440,-0.00014950,0.001
 17548,-0.00252332,0.00782654,-0.00218989,0.04046400,-0.01303517,-0.003
 29637,0.01923664,0.00774003,-0.02841655,0.01354134,-0.06656236,-0.0234
 1126,-0.13585562,0.13321064,-0.00010710,0.00005162,0.00003920,-0.00005
 968,0.00018961,-0.00004005,0.00043475,-0.00048626,0.00003891,-0.000668
 73,0.00169915,0.00078299,-0.00189665,-0.00211876,-0.00255542,-0.008888
 62,0.00600170,-0.02055595,0.01086548,-0.00861209,-0.08530145,-0.043359
 92,0.00570207,-0.07116315,0.00002622,-0.00003757,-0.00002377,0.0000335
 5,-0.00005461,0.00000730,0.00003413,-0.00005238,-0.00002212,-0.0001854
 9,0.00013572,0.00004517,0.00000236,-0.00001495,-0.00004860,-0.00150005
 ,0.00075097,0.00010572,0.00036690,-0.00024876,-0.00012590,-0.00180899,
 0.00022306,0.00170936,0.02967631,-0.01631706,0.00307159,0.01270708,-0.
 00683515,0.00379862,0.04411051,-0.02119156,-0.03175989,-0.01644057,-0.
 00825840,-0.21354244,-0.02334149,0.04947365,0.41553987\\0.00000002,-0.
 00000112,-0.00000023,-0.00000003,-0.00000087,-0.00000032,-0.00000013,-
 0.00000051,-0.00000032,-0.00000002,-0.00000029,-0.00000010,-0.00000010
 ,0.00000006,-0.00000012,0.00000006,0.00000030,0.00000015,-0.00000004,0
 .00000067,0.00000012,0.00000016,0.00000035,0.00000031,0.00000005,-0.00
 000055,-0.00000008,-0.00000013,-0.00000054,-0.00000013,0.00000012,-0.0
 0000029,-0.00000008,-0.00000007,-0.00000022,-0.00000021,-0.00000013,-0
 .00000024,-0.00000016,-0.00000008,0.00000005,-0.00000010,-0.00000009,0
 .00000004,-0.00000010,0.00000008,0.00000009,0.00000012,0.,0.00000032,0
 .00000006,-0.00000009,0.00000029,-0.00000004,0.00000021,0.00000084,0.0
 0000057,0.00000016,0.00000063,0.00000035,0.00000005,0.00000099,0.00000
 033\\\@


 THE NUMBERS ARE MEANINGLESS, BUT THE TRENDS ARE IMPORTANT.
     -- LARRY BURGGRAF
 Job cpu time:       0 days  0 hours 59 minutes 32.8 seconds.
 Elapsed time:       0 days  0 hours  1 minutes  2.2 seconds.
 File lengths (MBytes):  RWF=    202 Int=      0 D2E=      0 Chk=      6 Scr=      2
 Normal termination of Gaussian 16 at Thu May 11 06:07:33 2023.
