 Entering Gaussian System, Link 0=g16
 Input=paddle_new_AGE_TEABr_ro_CO2_bind_opt_freq_reposition.com
 Output=paddle_new_AGE_TEABr_ro_CO2_bind_opt_freq_reposition.log
 Initial command:
 /apps/applications/G16/g16.c01/l1.exe "/scratch/x2496a02/MOF_508/Gau-13462.inp" -scrdir="/scratch/x2496a02/MOF_508/"
 Default CPUs for threads: 0-39
 Default is to use a total of  40 processors:
                               40 via shared-memory
                                1 via Linda
 Entering Link 1 = /apps/applications/G16/g16.c01/l1.exe PID=     13463.
  
 Copyright (c) 1988-2019, Gaussian, Inc.  All Rights Reserved.
  
 This is part of the Gaussian(R) 16 program.  It is based on
 the Gaussian(R) 09 system (copyright 2009, Gaussian, Inc.),
 the Gaussian(R) 03 system (copyright 2003, Gaussian, Inc.),
 the Gaussian(R) 98 system (copyright 1998, Gaussian, Inc.),
 the Gaussian(R) 94 system (copyright 1995, Gaussian, Inc.),
 the Gaussian 92(TM) system (copyright 1992, Gaussian, Inc.),
 the Gaussian 90(TM) system (copyright 1990, Gaussian, Inc.),
 the Gaussian 88(TM) system (copyright 1988, Gaussian, Inc.),
 the Gaussian 86(TM) system (copyright 1986, Carnegie Mellon
 University), and the Gaussian 82(TM) system (copyright 1983,
 Carnegie Mellon University). Gaussian is a federally registered
 trademark of Gaussian, Inc.
  
 This software contains proprietary and confidential information,
 including trade secrets, belonging to Gaussian, Inc.
  
 This software is provided under written license and may be
 used, copied, transmitted, or stored only in accord with that
 written license.
  
 The following legend is applicable only to US Government
 contracts under FAR:
  
                    RESTRICTED RIGHTS LEGEND
  
 Use, reproduction and disclosure by the US Government is
 subject to restrictions as set forth in subparagraphs (a)
 and (c) of the Commercial Computer Software - Restricted
 Rights clause in FAR 52.227-19.
  
 Gaussian, Inc.
 340 Quinnipiac St., Bldg. 40, Wallingford CT 06492
  
  
 ---------------------------------------------------------------
 Warning -- This program may not be used in any manner that
 competes with the business of Gaussian, Inc. or will provide
 assistance to any competitor of Gaussian, Inc.  The licensee
 of this program is prohibited from giving any competitor of
 Gaussian, Inc. access to this program.  By using this program,
 the user acknowledges that Gaussian, Inc. is engaged in the
 business of creating and licensing software in the field of
 computational chemistry and represents and warrants to the
 licensee that it is not a competitor of Gaussian, Inc. and that
 it will not use this program in any manner prohibited above.
 ---------------------------------------------------------------
  

 Cite this work as:
 Gaussian 16, Revision C.01,
 M. J. Frisch, G. W. Trucks, H. B. Schlegel, G. E. Scuseria, 
 M. A. Robb, J. R. Cheeseman, G. Scalmani, V. Barone, 
 G. A. Petersson, H. Nakatsuji, X. Li, M. Caricato, A. V. Marenich, 
 J. Bloino, B. G. Janesko, R. Gomperts, B. Mennucci, H. P. Hratchian, 
 J. V. Ortiz, A. F. Izmaylov, J. L. Sonnenberg, D. Williams-Young, 
 F. Ding, F. Lipparini, F. Egidi, J. Goings, B. Peng, A. Petrone, 
 T. Henderson, D. Ranasinghe, V. G. Zakrzewski, J. Gao, N. Rega, 
 G. Zheng, W. Liang, M. Hada, M. Ehara, K. Toyota, R. Fukuda, 
 J. Hasegawa, M. Ishida, T. Nakajima, Y. Honda, O. Kitao, H. Nakai, 
 T. Vreven, K. Throssell, J. A. Montgomery, Jr., J. E. Peralta, 
 F. Ogliaro, M. J. Bearpark, J. J. Heyd, E. N. Brothers, K. N. Kudin, 
 V. N. Staroverov, T. A. Keith, R. Kobayashi, J. Normand, 
 K. Raghavachari, A. P. Rendell, J. C. Burant, S. S. Iyengar, 
 J. Tomasi, M. Cossi, J. M. Millam, M. Klene, C. Adamo, R. Cammi, 
 J. W. Ochterski, R. L. Martin, K. Morokuma, O. Farkas, 
 J. B. Foresman, and D. J. Fox, Gaussian, Inc., Wallingford CT, 2019.
 
 ******************************************
 Gaussian 16:  ES64L-G16RevC.01  3-Jul-2019
                 4-Jul-2023 
 ******************************************
 %nprocshared=20
 Will use up to   20 processors via shared memory.
 %mem=20GB
 %chk=paddle_new_AGE_TEABr_ro_CO2_bind_opt_freq_reposition.chk
 Will use    4 GPUs:
 Thread  CPU   GPU
      0    0     0
      1   10     1
      2   11     2
      3   19     3
      4    1    -1
      5    2    -1
      6    3    -1
      7    4    -1
      8    5    -1
      9    6    -1
     10    7    -1
     11    8    -1
     12    9    -1
     13   12    -1
     14   13    -1
     15   14    -1
     16   15    -1
     17   16    -1
     18   17    -1
     19   18    -1
 SetGPE:  set environment variable "MP_BIND" = "yes"
 SetGPE:  set environment variable "MP_BLIST" = "0,10,11,19,1,2,3,4,5,6,7,8,9,12,13,14,15,16,17,18"
 Properties for Device   0
 Minimum vector length:                              32
 Maximum vector length:                            1024
 Number of SMPs:                                     80
 Maximum number of threads per SMP:                2048
 Number of ASync Engines:                             7
 Memory:                                           3193921536
 Properties for Device   1
 Minimum vector length:                              32
 Maximum vector length:                            1024
 Number of SMPs:                                     80
 Maximum number of threads per SMP:                2048
 Number of ASync Engines:                             7
 Memory:                                           3201261568
 Properties for Device   2
 Minimum vector length:                              32
 Maximum vector length:                            1024
 Number of SMPs:                                     80
 Maximum number of threads per SMP:                2048
 Number of ASync Engines:                             7
 Memory:                                           3201261568
 Properties for Device   3
 Minimum vector length:                              32
 Maximum vector length:                            1024
 Number of SMPs:                                     80
 Maximum number of threads per SMP:                2048
 Number of ASync Engines:                             7
 Memory:                                           3201261568
   2874529382 words of memory will be used on each GPU.
 ----------------------------------------------------------------------
 # opt=(calcall,tight,cartesian) freq b3lyp/gen nosymm scf=(qc,maxcycle
 =1024) pseudo=read
 ----------------------------------------------------------------------
 1/7=10,10=4,18=10,26=3,38=1/1,3;
 2/12=2,15=1,17=6,18=5,29=2,40=1/2;
 3/5=7,11=2,16=1,17=8,25=1,30=1,71=2,74=-5,140=1/1,2,3;
 4//1;
 5/5=2,7=1024,8=3,38=5/8;
 8/6=4,10=90,11=11/1;
 11/6=1,8=1,9=11,15=111,16=1,31=1/1,2,10;
 10/6=1,31=1/2;
 6/7=2,8=2,9=2,10=2,18=1,28=1/1;
 7/7=1,10=1,25=1,30=1/1,2,3,16;
 1/7=10,10=4,18=10,26=3/3(3);
 2/15=1,29=1/2;
 7/7=1,8=1,9=1,25=1,30=1,44=-1/16;
 99/12=1/99;
 2/15=1,29=1/2;
 3/5=7,6=1,11=2,16=1,17=8,25=1,30=1,71=2,74=-5,82=7,140=1/1,2,3;
 4/5=5,16=3,69=1/1;
 5/5=2,7=1024,8=3,38=5/8;
 8/6=4,10=90,11=11/1;
 11/6=1,8=1,9=11,15=111,16=1,31=1/1,2,10;
 10/6=1,31=1/2;
 7/7=1,10=1,25=1,30=1/1,2,3,16;
 1/7=10,10=4,18=10,26=3/3(-8);
 2/15=1,29=1/2;
 6/7=2,8=2,9=2,10=2,18=1,19=2,28=1/1;
 7/7=1,8=1,9=1,25=1,30=1,44=-1/16;
 99/12=1/99;
 ----------------------------------------------------
 paddle_new_AGE_TEABr_ro_CO2_bind_opt_freq_reposition
 ----------------------------------------------------
 Symbolic Z-matrix:
 Charge =  0 Multiplicity = 1
 Zn                   -1   -4.69449  -2.52891   2.32632 
 O                    -1   -4.60002  -0.93173   3.63136 
 O                    0    -2.34263  -0.8559    3.53798 
 O                    -1   -3.7714   -1.27973   0.82823 
 O                    0    -1.52078  -1.10665   0.66771 
 C                    -1   -3.46123  -0.46882   3.94274 
 C                    -1   -2.70354  -0.84264   0.32124 
 Zn                   0    -1.17521  -2.40819   2.23517 
 O                    0    -2.28468  -3.9884    0.96905 
 O                    -1   -4.53935  -4.11556   1.01425 
 O                    0    -1.3314   -3.69301   3.80328 
 O                    -1   -3.59321  -3.69443   3.77059 
 C                    -1   -3.3849   -4.48478   0.64137 
 C                    -1   -2.46758  -4.0416    4.21874 
 H                    -1   -3.45541   0.38383   4.64232 
 H                    -1   -2.79074  -0.14615  -0.52756 
 H                    -1   -3.34703  -5.33554  -0.0595 
 H                    -1   -2.45197  -4.74051   5.06989 
 C                    -1   -7.53384  -1.75151   3.14439 
 C                    -1   -8.92519  -1.77977   3.20973 
 C                    -1   -9.61549  -2.73787   2.46521 
 C                    -1   -8.88946  -3.63544   1.68034 
 C                    -1   -7.49932  -3.5449    1.66652 
 N                    -1   -6.83449  -2.61908   2.38606 
 H                    -1   -10.70019  -2.78423   2.49611 
 H                    -1   -6.94295  -1.03037   3.70008 
 H                    -1   -9.44925  -1.06304   3.8329 
 H                    -1   -9.38507  -4.39575   1.08621 
 H                    -1   -6.88162  -4.21449   1.07654 
 C                    0     2.55236   2.89253   5.3282 
 C                    0     3.2162    2.97743   4.17185 
 C                    0     2.62662   2.67397   2.82462 
 O                    0     3.50484   1.81592   2.12028 
 C                    0     3.10739   1.60043   0.76509 
 C                    0     3.68201   0.26253   0.28123 
 C                    0     3.55597   0.10368  -1.24187 
 O                    0     3.04855  -0.84614   0.81337 
 H                    0     3.02037   3.14979   6.27495 
 H                    0     1.52204   2.54585   5.36671 
 H                    0     4.25901   3.29543   4.16158 
 H                    0     2.50062   3.62307   2.26598 
 H                    0     1.63321   2.21071   2.92593 
 H                    0     3.47252   2.43584   0.14553 
 H                    0     2.01304   1.56058   0.68771 
 H                    0     4.7554    0.25879   0.54826 
 H                    0     3.94457  -0.86384  -1.54963 
 H                    0     2.53487   0.24993  -1.58982 
 N                    -1    9.32365   7.87859  -9.41833 
 C                    -1    8.77519   8.66629  -10.62748 
 C                    -1    7.27043   8.62289  -10.87255 
 H                    -1    9.31304   8.2707   -11.50121 
 H                    -1    9.07822   9.7019   -10.45098 
 H                    -1    7.10358   9.15702  -11.81342 
 H                    -1    6.88374   7.6137   -11.01372 
 H                    -1    6.68334   9.12889  -10.10025 
 C                    -1    8.3918    8.04929  -8.23166 
 C                    -1    8.83977   7.40494  -6.92222 
 H                    -1    7.42815   7.64083  -8.53166 
 H                    -1    8.26601   9.12853  -8.10365 
 H                    -1    8.06075   7.5952   -6.17719 
 H                    -1    8.95072   6.32106  -7.00604 
 H                    -1    9.77023   7.82471  -6.53281 
 C                    -1    10.68837   8.48329  -9.05489 
 C                    -1    11.65487   8.71425  -10.21454 
 H                    -1    11.12876   7.80114  -8.32636 
 H                    -1    10.46651   9.42567  -8.54406 
 H                    -1    12.64171   8.90747  -9.78094 
 H                    -1    11.73079   7.86425  -10.89914 
 H                    -1    11.37934   9.58313  -10.81558 
 C                    -1    9.55968   6.39601  -9.75557 
 C                    -1    8.33127   5.54396  -10.04222 
 H                    -1    10.11973   5.99722  -8.90738 
 H                    -1    10.18644   6.39166  -10.65626 
 H                    -1    8.68431   4.51032  -10.11399 
 H                    -1    7.56308   5.57545  -9.26272 
 H                    -1    7.89699   5.78487  -11.01342 
 Br                   0     4.66259   1.42844  -2.34312 
 C                    0     2.96207  -2.09502   1.60533 
 O                    0     1.45242  -2.47595   1.81253 
 O                    0     4.15043  -2.94749   2.4262 
 

 GradGradGradGradGradGradGradGradGradGradGradGradGradGradGradGradGradGrad
 Berny optimization.
 Initialization pass.
 No Z-matrix variables, so optimization will use Cartesian coordinates.
 Trust Radius=3.00D-01 FncErr=1.00D-07 GrdErr=1.00D-06 EigMax=2.50D+02 EigMin=1.00D-04
 Number of steps in this run=    250 maximum allowed number of steps=    480.
 GradGradGradGradGradGradGradGradGradGradGradGradGradGradGradGradGradGrad

 Symmetry turned off by external request.
 Stoichiometry    C24H39BrN2O12Zn2
 Framework group  C1[X(C24H39BrN2O12Zn2)]
 Deg. of freedom   234
 Full point group                 C1      NOp   1
                          Input orientation:                          
 ---------------------------------------------------------------------
 Center     Atomic      Atomic             Coordinates (Angstroms)
 Number     Number       Type             X           Y           Z
 ---------------------------------------------------------------------
      1         30           0       -4.694489   -2.528905    2.326317
      2          8           0       -4.600022   -0.931734    3.631360
      3          8           0       -2.342631   -0.855895    3.537978
      4          8           0       -3.771400   -1.279734    0.828231
      5          8           0       -1.520783   -1.106655    0.667707
      6          6           0       -3.461226   -0.468815    3.942742
      7          6           0       -2.703539   -0.842639    0.321243
      8         30           0       -1.175207   -2.408187    2.235175
      9          8           0       -2.284678   -3.988395    0.969047
     10          8           0       -4.539354   -4.115561    1.014246
     11          8           0       -1.331403   -3.693014    3.803278
     12          8           0       -3.593209   -3.694425    3.770586
     13          6           0       -3.384903   -4.484776    0.641370
     14          6           0       -2.467582   -4.041605    4.218740
     15          1           0       -3.455408    0.383834    4.642316
     16          1           0       -2.790739   -0.146153   -0.527563
     17          1           0       -3.347035   -5.335536   -0.059501
     18          1           0       -2.451967   -4.740511    5.069891
     19          6           0       -7.533844   -1.751514    3.144391
     20          6           0       -8.925190   -1.779770    3.209727
     21          6           0       -9.615492   -2.737870    2.465207
     22          6           0       -8.889458   -3.635442    1.680343
     23          6           0       -7.499316   -3.544901    1.666524
     24          7           0       -6.834486   -2.619084    2.386057
     25          1           0      -10.700185   -2.784227    2.496111
     26          1           0       -6.942948   -1.030371    3.700081
     27          1           0       -9.449248   -1.063042    3.832903
     28          1           0       -9.385065   -4.395750    1.086214
     29          1           0       -6.881618   -4.214494    1.076539
     30          6           0        2.552356    2.892531    5.328202
     31          6           0        3.216195    2.977432    4.171845
     32          6           0        2.626620    2.673974    2.824617
     33          8           0        3.504837    1.815921    2.120282
     34          6           0        3.107390    1.600432    0.765092
     35          6           0        3.682010    0.262530    0.281230
     36          6           0        3.555973    0.103681   -1.241867
     37          8           0        3.048554   -0.846140    0.813373
     38          1           0        3.020372    3.149792    6.274951
     39          1           0        1.522044    2.545851    5.366708
     40          1           0        4.259011    3.295430    4.161583
     41          1           0        2.500621    3.623071    2.265981
     42          1           0        1.633212    2.210709    2.925927
     43          1           0        3.472525    2.435844    0.145526
     44          1           0        2.013045    1.560584    0.687712
     45          1           0        4.755397    0.258788    0.548255
     46          1           0        3.944569   -0.863843   -1.549634
     47          1           0        2.534867    0.249929   -1.589824
     48          7           0        9.323654    7.878593   -9.418327
     49          6           0        8.775192    8.666291  -10.627481
     50          6           0        7.270430    8.622886  -10.872553
     51          1           0        9.313044    8.270702  -11.501210
     52          1           0        9.078220    9.701899  -10.450984
     53          1           0        7.103577    9.157016  -11.813418
     54          1           0        6.883739    7.613699  -11.013723
     55          1           0        6.683343    9.128889  -10.100249
     56          6           0        8.391804    8.049291   -8.231660
     57          6           0        8.839774    7.404936   -6.922216
     58          1           0        7.428152    7.640829   -8.531655
     59          1           0        8.266006    9.128533   -8.103645
     60          1           0        8.060745    7.595195   -6.177194
     61          1           0        8.950718    6.321056   -7.006041
     62          1           0        9.770233    7.824714   -6.532814
     63          6           0       10.688373    8.483285   -9.054888
     64          6           0       11.654868    8.714255  -10.214541
     65          1           0       11.128756    7.801136   -8.326361
     66          1           0       10.466507    9.425674   -8.544057
     67          1           0       12.641714    8.907473   -9.780939
     68          1           0       11.730791    7.864246  -10.899138
     69          1           0       11.379340    9.583125  -10.815579
     70          6           0        9.559677    6.396005   -9.755568
     71          6           0        8.331274    5.543955  -10.042216
     72          1           0       10.119726    5.997221   -8.907378
     73          1           0       10.186439    6.391655  -10.656259
     74          1           0        8.684305    4.510323  -10.113993
     75          1           0        7.563082    5.575454   -9.262716
     76          1           0        7.896991    5.784870  -11.013421
     77         35           0        4.662594    1.428442   -2.343117
     78          6           0        2.962068   -2.095023    1.605328
     79          8           0        1.452421   -2.475951    1.812525
     80          8           0        4.150435   -2.947488    2.426200
 ---------------------------------------------------------------------
 Rotational constants (GHZ):           0.0856805           0.0109187           0.0103564
 General basis read from cards:  (5D, 7F)
 ======================================================================================================
                                       Pseudopotential Parameters
 ======================================================================================================
  Center     Atomic      Valence      Angular      Power
  Number     Number     Electrons     Momentum     of R      Exponent        Coefficient   SO-Coeffient
 ======================================================================================================
    1         30           12
                                      F and up 
                                                     1      386.7379660      -18.00000000    0.00000000
                                                     2       72.8587359     -124.35274030    0.00000000
                                                     2       15.9066170      -30.66018220    0.00000000
                                                     2        4.3502340      -10.63589890    0.00000000
                                                     2        1.2842199       -0.76836230    0.00000000
                                      S - F
                                                     0       19.0867858        3.00000000    0.00000000
                                                     1        5.0231080       22.52342250    0.00000000
                                                     2        1.2701744       48.44659420    0.00000000
                                                     2        1.0671287      -44.55601190    0.00000000
                                                     2        0.9264190       12.99839580    0.00000000
                                      P - F
                                                     0       43.4927750        5.00000000    0.00000000
                                                     1       20.8692669       20.74355890    0.00000000
                                                     2       21.7118378       90.30271580    0.00000000
                                                     2        6.3616915       74.66103160    0.00000000
                                                     2        1.2291195        9.88944240    0.00000000
                                      D - F
                                                     2       13.5851800       -4.84903590    0.00000000
                                                     2        9.8373050        3.69133790    0.00000000
                                                     2        0.8373113       -0.50373190    0.00000000
    2          8
                                   No pseudopotential on this center.
    3          8
                                   No pseudopotential on this center.
    4          8
                                   No pseudopotential on this center.
    5          8
                                   No pseudopotential on this center.
    6          6
                                   No pseudopotential on this center.
    7          6
                                   No pseudopotential on this center.
    8         30           12
                                      F and up 
                                                     1      386.7379660      -18.00000000    0.00000000
                                                     2       72.8587359     -124.35274030    0.00000000
                                                     2       15.9066170      -30.66018220    0.00000000
                                                     2        4.3502340      -10.63589890    0.00000000
                                                     2        1.2842199       -0.76836230    0.00000000
                                      S - F
                                                     0       19.0867858        3.00000000    0.00000000
                                                     1        5.0231080       22.52342250    0.00000000
                                                     2        1.2701744       48.44659420    0.00000000
                                                     2        1.0671287      -44.55601190    0.00000000
                                                     2        0.9264190       12.99839580    0.00000000
                                      P - F
                                                     0       43.4927750        5.00000000    0.00000000
                                                     1       20.8692669       20.74355890    0.00000000
                                                     2       21.7118378       90.30271580    0.00000000
                                                     2        6.3616915       74.66103160    0.00000000
                                                     2        1.2291195        9.88944240    0.00000000
                                      D - F
                                                     2       13.5851800       -4.84903590    0.00000000
                                                     2        9.8373050        3.69133790    0.00000000
                                                     2        0.8373113       -0.50373190    0.00000000
    9          8
                                   No pseudopotential on this center.
   10          8
                                   No pseudopotential on this center.
   11          8
                                   No pseudopotential on this center.
   12          8
                                   No pseudopotential on this center.
   13          6
                                   No pseudopotential on this center.
   14          6
                                   No pseudopotential on this center.
   15          1
                                   No pseudopotential on this center.
   16          1
                                   No pseudopotential on this center.
   17          1
                                   No pseudopotential on this center.
   18          1
                                   No pseudopotential on this center.
   19          6
                                   No pseudopotential on this center.
   20          6
                                   No pseudopotential on this center.
   21          6
                                   No pseudopotential on this center.
   22          6
                                   No pseudopotential on this center.
   23          6
                                   No pseudopotential on this center.
   24          7
                                   No pseudopotential on this center.
   25          1
                                   No pseudopotential on this center.
   26          1
                                   No pseudopotential on this center.
   27          1
                                   No pseudopotential on this center.
   28          1
                                   No pseudopotential on this center.
   29          1
                                   No pseudopotential on this center.
   30          6
                                   No pseudopotential on this center.
   31          6
                                   No pseudopotential on this center.
   32          6
                                   No pseudopotential on this center.
   33          8
                                   No pseudopotential on this center.
   34          6
                                   No pseudopotential on this center.
   35          6
                                   No pseudopotential on this center.
   36          6
                                   No pseudopotential on this center.
   37          8
                                   No pseudopotential on this center.
   38          1
                                   No pseudopotential on this center.
   39          1
                                   No pseudopotential on this center.
   40          1
                                   No pseudopotential on this center.
   41          1
                                   No pseudopotential on this center.
   42          1
                                   No pseudopotential on this center.
   43          1
                                   No pseudopotential on this center.
   44          1
                                   No pseudopotential on this center.
   45          1
                                   No pseudopotential on this center.
   46          1
                                   No pseudopotential on this center.
   47          1
                                   No pseudopotential on this center.
   48          7
                                   No pseudopotential on this center.
   49          6
                                   No pseudopotential on this center.
   50          6
                                   No pseudopotential on this center.
   51          1
                                   No pseudopotential on this center.
   52          1
                                   No pseudopotential on this center.
   53          1
                                   No pseudopotential on this center.
   54          1
                                   No pseudopotential on this center.
   55          1
                                   No pseudopotential on this center.
   56          6
                                   No pseudopotential on this center.
   57          6
                                   No pseudopotential on this center.
   58          1
                                   No pseudopotential on this center.
   59          1
                                   No pseudopotential on this center.
   60          1
                                   No pseudopotential on this center.
   61          1
                                   No pseudopotential on this center.
   62          1
                                   No pseudopotential on this center.
   63          6
                                   No pseudopotential on this center.
   64          6
                                   No pseudopotential on this center.
   65          1
                                   No pseudopotential on this center.
   66          1
                                   No pseudopotential on this center.
   67          1
                                   No pseudopotential on this center.
   68          1
                                   No pseudopotential on this center.
   69          1
                                   No pseudopotential on this center.
   70          6
                                   No pseudopotential on this center.
   71          6
                                   No pseudopotential on this center.
   72          1
                                   No pseudopotential on this center.
   73          1
                                   No pseudopotential on this center.
   74          1
                                   No pseudopotential on this center.
   75          1
                                   No pseudopotential on this center.
   76          1
                                   No pseudopotential on this center.
   77         35
                                   No pseudopotential on this center.
   78          6
                                   No pseudopotential on this center.
   79          8
                                   No pseudopotential on this center.
   80          8
                                   No pseudopotential on this center.
 ======================================================================================================
   947 basis functions,  1654 primitive gaussians,   991 cartesian basis functions
   176 alpha electrons      176 beta electrons
       nuclear repulsion energy      5111.1661545475 Hartrees.
 NAtoms=   80 NActive=   80 NUniq=   80 SFac= 1.00D+00 NAtFMM=   60 NAOKFM=T Big=T
 Integral buffers will be    131072 words long.
 Raffenetti 2 integral format.
 Two-electron integral symmetry is turned off.
 One-electron integrals computed using PRISM.
   1 Symmetry operations used in ECPInt.
 ECPInt:  NShTT=   55278 NPrTT=  248328 LenC2=   27738 LenP2D=   74627.
 LDataN:  DoStor=T MaxTD1= 5 Len=  102
 NBasis=   947 RedAO= T EigKep=  7.44D-06  NBF=   947
 NBsUse=   947 1.00D-06 EigRej= -1.00D+00 NBFU=   947
 ExpMin= 3.50D-02 ExpMax= 5.74D+05 ExpMxC= 5.74D+03 IAcc=3 IRadAn=         5 AccDes= 0.00D+00
 Harris functional with IExCor=  402 and IRadAn=       5 diagonalized for initial guess.
 HarFok:  IExCor=  402 AccDes= 0.00D+00 IRadAn=         5 IDoV= 1 UseB2=F ITyADJ=14
 ICtDFT=  3500011 ScaDFX=  1.000000  1.000000  1.000000  1.000000
 FoFCou: FMM=F IPFlag=           0 FMFlag=      100000 FMFlg1=        2001
         NFxFlg=           0 DoJE=T BraDBF=F KetDBF=T FulRan=T
         wScrn=  0.000000 ICntrl=       500 IOpCl=  0 I1Cent=   200000004 NGrid=           0
         NMat0=    1 NMatS0=      1 NMatT0=    0 NMatD0=    1 NMtDS0=    0 NMtDT0=    0
 Symmetry not used in FoFCou.
 Gradient too large for Newton-Raphson -- use scaled steepest descent instead.
     Minimum is close to point  2 DX= -1.96D-02 DF= -5.68D-03 DXR=  7.00D-02 DFR=  4.93D-03 which will be used.
 Gradient too large for Newton-Raphson -- use scaled steepest descent instead.
     Minimum is close to point  2 DX= -1.52D-02 DF= -4.32D-04 DXR=  5.33D-02 DFR=  2.85D-03 which will be used.
 Gradient too large for Newton-Raphson -- use scaled steepest descent instead.
     Minimum is close to point  2 DX=  3.01D-02 DF= -2.71D-04 DXR=  9.11D-02 DFR=  8.37D-03 which will be used.
 Gradient too large for Newton-Raphson -- use scaled steepest descent instead.
 Gradient too large for Newton-Raphson -- use scaled steepest descent instead.
     Accept linear search using points  1 and  2.
 Gradient too large for Newton-Raphson -- use scaled steepest descent instead.
     Minimum is close to point  3 DX=  9.95D-03 DF= -3.93D-07 DXR=  1.23D-02 DFR=  1.50D-04 which will be used.
 Gradient too large for Newton-Raphson -- use scaled steepest descent instead.
     Accept linear search using points  1 and  2.
 Gradient too large for Newton-Raphson -- use scaled steepest descent instead.
     Minimum is close to point  2 DX=  3.56D-02 DF= -1.64D-07 DXR=  4.26D-02 DFR=  1.82D-03 which will be used.
 LinEq1:  Iter=  0 NonCon=     1 RMS=3.45D-05 Max=5.54D-03 NDo=     1
 AX will form     1 AO Fock derivatives at one time.
 LinEq1:  Iter=  1 NonCon=     1 RMS=4.78D-05 Max=4.43D-03 NDo=     1
 LinEq1:  Iter=  2 NonCon=     1 RMS=2.06D-05 Max=2.26D-03 NDo=     1
 LinEq1:  Iter=  3 NonCon=     1 RMS=2.09D-05 Max=2.23D-03 NDo=     1
 LinEq1:  Iter=  4 NonCon=     1 RMS=1.32D-05 Max=1.11D-03 NDo=     1
 LinEq1:  Iter=  5 NonCon=     1 RMS=5.68D-06 Max=3.00D-04 NDo=     1
 LinEq1:  Iter=  6 NonCon=     1 RMS=4.28D-06 Max=3.10D-04 NDo=     1
 LinEq1:  Iter=  7 NonCon=     1 RMS=2.71D-06 Max=1.73D-04 NDo=     1
 LinEq1:  Iter=  8 NonCon=     1 RMS=2.50D-06 Max=2.22D-04 NDo=     1
 LinEq1:  Iter=  9 NonCon=     1 RMS=1.56D-06 Max=1.45D-04 NDo=     1
 LinEq1:  Iter= 10 NonCon=     1 RMS=9.69D-07 Max=1.05D-04 NDo=     1
 LinEq1:  Iter= 11 NonCon=     1 RMS=6.85D-07 Max=6.29D-05 NDo=     1
 LinEq1:  Iter= 12 NonCon=     1 RMS=4.84D-07 Max=3.92D-05 NDo=     1
 LinEq1:  Iter= 13 NonCon=     1 RMS=3.77D-07 Max=3.02D-05 NDo=     1
 LinEq1:  Iter= 14 NonCon=     1 RMS=2.50D-07 Max=2.21D-05 NDo=     1
 LinEq1:  Iter= 15 NonCon=     1 RMS=1.19D-07 Max=7.48D-06 NDo=     1
 LinEq1:  Iter= 16 NonCon=     1 RMS=7.27D-08 Max=6.83D-06 NDo=     1
 LinEq1:  Iter= 17 NonCon=     1 RMS=5.34D-08 Max=5.61D-06 NDo=     1
 LinEq1:  Iter= 18 NonCon=     1 RMS=3.48D-08 Max=1.82D-06 NDo=     1
 LinEq1:  Iter= 19 NonCon=     1 RMS=2.87D-08 Max=3.60D-06 NDo=     1
 LinEq1:  Iter= 20 NonCon=     1 RMS=1.67D-08 Max=1.49D-06 NDo=     1
 LinEq1:  Iter= 21 NonCon=     1 RMS=9.60D-09 Max=7.84D-07 NDo=     1
 LinEq1:  Iter= 22 NonCon=     0 RMS=4.89D-09 Max=3.19D-07 NDo=     1
 Linear equations converged to 5.210D-08 5.210D-07 after    22 iterations.
     Accept linear search using points  1 and  2.
     Minimum is close to point  2 DX= -6.98D-03 DF= -1.49D-09 DXR=  7.02D-03 DFR=  4.96D-05 which will be used.
 LinEq1:  Iter=  0 NonCon=     1 RMS=3.44D-07 Max=6.08D-05 NDo=     1
 LinEq1:  Iter=  1 NonCon=     1 RMS=5.41D-07 Max=4.26D-05 NDo=     1
 LinEq1:  Iter=  2 NonCon=     1 RMS=1.66D-07 Max=1.74D-05 NDo=     1
 LinEq1:  Iter=  3 NonCon=     1 RMS=2.47D-07 Max=2.83D-05 NDo=     1
 LinEq1:  Iter=  4 NonCon=     1 RMS=1.96D-07 Max=1.73D-05 NDo=     1
 LinEq1:  Iter=  5 NonCon=     1 RMS=1.27D-07 Max=8.95D-06 NDo=     1
 LinEq1:  Iter=  6 NonCon=     1 RMS=7.47D-08 Max=5.11D-06 NDo=     1
 LinEq1:  Iter=  7 NonCon=     1 RMS=5.44D-08 Max=4.34D-06 NDo=     1
 LinEq1:  Iter=  8 NonCon=     1 RMS=5.32D-08 Max=4.49D-06 NDo=     1
 LinEq1:  Iter=  9 NonCon=     1 RMS=2.74D-08 Max=2.23D-06 NDo=     1
 LinEq1:  Iter= 10 NonCon=     1 RMS=1.82D-08 Max=1.39D-06 NDo=     1
 LinEq1:  Iter= 11 NonCon=     1 RMS=1.27D-08 Max=1.29D-06 NDo=     1
 LinEq1:  Iter= 12 NonCon=     1 RMS=1.11D-08 Max=9.80D-07 NDo=     1
 LinEq1:  Iter= 13 NonCon=     1 RMS=7.11D-09 Max=4.51D-07 NDo=     1
 LinEq1:  Iter= 14 NonCon=     1 RMS=4.30D-09 Max=4.02D-07 NDo=     1
 LinEq1:  Iter= 15 NonCon=     1 RMS=2.75D-09 Max=3.53D-07 NDo=     1
 LinEq1:  Iter= 16 NonCon=     1 RMS=2.13D-09 Max=2.25D-07 NDo=     1
 LinEq1:  Iter= 17 NonCon=     1 RMS=9.78D-10 Max=9.14D-08 NDo=     1
 LinEq1:  Iter= 18 NonCon=     1 RMS=6.25D-10 Max=8.92D-08 NDo=     1
 LinEq1:  Iter= 19 NonCon=     1 RMS=4.28D-10 Max=4.22D-08 NDo=     1
 LinEq1:  Iter= 20 NonCon=     1 RMS=2.24D-10 Max=1.21D-08 NDo=     1
 LinEq1:  Iter= 21 NonCon=     1 RMS=1.42D-10 Max=9.92D-09 NDo=     1
 LinEq1:  Iter= 22 NonCon=     1 RMS=1.18D-10 Max=1.00D-08 NDo=     1
 LinEq1:  Iter= 23 NonCon=     1 RMS=7.19D-11 Max=6.82D-09 NDo=     1
 LinEq1:  Iter= 24 NonCon=     1 RMS=5.16D-11 Max=4.39D-09 NDo=     1
 LinEq1:  Iter= 25 NonCon=     0 RMS=2.24D-11 Max=1.52D-09 NDo=     1
 Linear equations converged to 3.694D-10 3.694D-09 after    25 iterations.
 Restarting incremental Fock formation.
 SCF Done:  E(RB3LYP) =  -4652.81754373     a.u. after   11 cycles
            Convg  =    0.1551D-07                    68 Fock formations.
              S**2 =  0.0000                  -V/T =  1.9823
 DoSCS=F DFT=T ScalE2(SS,OS)=  1.000000  1.000000
 Range of M.O.s used for correlation:     1   947
 NBasis=   947 NAE=   176 NBE=   176 NFC=     0 NFV=     0
 NROrb=    947 NOA=   176 NOB=   176 NVA=   771 NVB=   771

 **** Warning!!: The largest alpha MO coefficient is  0.72871821D+02


 **** Warning!!: The smallest alpha delta epsilon is  0.28697415D-01

   1 Symmetry operations used in ECPInt.
 ECPInt:  NShTT=   55278 NPrTT=  248328 LenC2=   27738 LenP2D=   74627.
 LDataN:  DoStor=T MaxTD1= 6 Len=  172
 Number of processors reduced to   4 by ecpmxn.
 Symmetrizing basis deriv contribution to polar:
 IMax=3 JMax=2 DiffMx= 0.00D+00
 G2DrvN: will do    81 centers at a time, making    1 passes.
 Calling FoFCou, ICntrl=  3107 FMM=T I1Cent=   0 AccDes= 0.00D+00.
 End of G2Drv F.D. properties file   721 does not exist.
 End of G2Drv F.D. properties file   722 does not exist.
 End of G2Drv F.D. properties file   788 does not exist.
          IDoAtm=00101001101000000000000000000111111111111111111000
          IDoAtm=000000000000000000000000001111
          Differentiating once with respect to electric field.
                with respect to dipole field.
          Differentiating once with respect to nuclear coordinates.
 CalDSu exits because no D1Ps are significant.
          There are    84 degrees of freedom in the 1st order CPHF.  IDoFFX=6 NUNeed=     3.
     84 vectors produced by pass  0 Test12= 1.62D-13 1.19D-09 XBig12= 4.47D+02 5.73D+00.
 AX will form    84 AO Fock derivatives at one time.
     84 vectors produced by pass  1 Test12= 1.62D-13 1.19D-09 XBig12= 2.90D+02 3.97D+00.
     84 vectors produced by pass  2 Test12= 1.62D-13 1.19D-09 XBig12= 2.66D+01 1.25D+00.
     84 vectors produced by pass  3 Test12= 1.62D-13 1.19D-09 XBig12= 4.08D+00 4.57D-01.
     84 vectors produced by pass  4 Test12= 1.62D-13 1.19D-09 XBig12= 3.96D-01 1.64D-01.
     84 vectors produced by pass  5 Test12= 1.62D-13 1.19D-09 XBig12= 7.51D-03 6.86D-03.
     62 vectors produced by pass  6 Test12= 1.62D-13 1.19D-09 XBig12= 5.51D-05 1.21D-03.
     26 vectors produced by pass  7 Test12= 1.62D-13 1.19D-09 XBig12= 3.77D-07 1.22D-04.
     17 vectors produced by pass  8 Test12= 1.62D-13 1.19D-09 XBig12= 3.63D-09 1.05D-05.
      3 vectors produced by pass  9 Test12= 1.62D-13 1.19D-09 XBig12= 5.01D-11 1.64D-06.
      3 vectors produced by pass 10 Test12= 1.62D-13 1.19D-09 XBig12= 5.84D-13 1.75D-07.
      3 vectors produced by pass 11 Test12= 1.62D-13 1.19D-09 XBig12= 8.41D-15 1.39D-08.
 InvSVY:  IOpt=1 It=  1 EMax= 1.07D-14
 Solved reduced A of dimension   618 with    84 vectors.
 Isotropic polarizability for W=    0.000000      425.01 Bohr**3.
 End of Minotr F.D. properties file   721 does not exist.
 End of Minotr F.D. properties file   722 does not exist.
 End of Minotr F.D. properties file   788 does not exist.

 **********************************************************************

            Population analysis using the SCF Density.

 **********************************************************************

 Alpha  occ. eigenvalues -- -482.63685 -61.72185 -56.29111 -56.28788 -56.28774
 Alpha  occ. eigenvalues --  -19.11096 -19.10858 -19.07917 -19.07902 -19.07742
 Alpha  occ. eigenvalues --  -19.07533 -19.07226 -19.07112 -19.06737 -19.06476
 Alpha  occ. eigenvalues --  -19.03384 -19.03172 -14.57638 -14.35429 -10.36457
 Alpha  occ. eigenvalues --  -10.36223 -10.36135 -10.35783 -10.30343 -10.30027
 Alpha  occ. eigenvalues --  -10.29893 -10.29676 -10.29346 -10.24178 -10.24040
 Alpha  occ. eigenvalues --  -10.23897 -10.23653 -10.22214 -10.22196 -10.21909
 Alpha  occ. eigenvalues --  -10.21032 -10.20763 -10.19748 -10.19737 -10.19384
 Alpha  occ. eigenvalues --  -10.19158 -10.15321 -10.14498  -8.49252  -6.50789
 Alpha  occ. eigenvalues --   -6.49659  -6.49641  -2.62756  -2.62447  -2.62432
 Alpha  occ. eigenvalues --   -2.61531  -2.61531  -1.12633  -1.00531  -1.00166
 Alpha  occ. eigenvalues --   -0.99864  -0.99747  -0.99623  -0.97783  -0.95038
 Alpha  occ. eigenvalues --   -0.91898  -0.91707  -0.91466  -0.91245  -0.90923
 Alpha  occ. eigenvalues --   -0.90741  -0.90521  -0.85464  -0.80763  -0.80127
 Alpha  occ. eigenvalues --   -0.78106  -0.77485  -0.76716  -0.76481  -0.76461
 Alpha  occ. eigenvalues --   -0.74906  -0.74564  -0.70490  -0.69784  -0.65524
 Alpha  occ. eigenvalues --   -0.64122  -0.64003  -0.63442  -0.63026  -0.62176
 Alpha  occ. eigenvalues --   -0.60897  -0.59651  -0.58338  -0.58315  -0.57654
 Alpha  occ. eigenvalues --   -0.56446  -0.55981  -0.55971  -0.55704  -0.55675
 Alpha  occ. eigenvalues --   -0.55565  -0.55532  -0.55219  -0.55191  -0.54151
 Alpha  occ. eigenvalues --   -0.54080  -0.53729  -0.52698  -0.52680  -0.52236
 Alpha  occ. eigenvalues --   -0.52038  -0.51932  -0.51903  -0.51365  -0.51041
 Alpha  occ. eigenvalues --   -0.50851  -0.50538  -0.50442  -0.49835  -0.49703
 Alpha  occ. eigenvalues --   -0.48665  -0.48270  -0.47990  -0.47830  -0.46912
 Alpha  occ. eigenvalues --   -0.46791  -0.46452  -0.46217  -0.45064  -0.43595
 Alpha  occ. eigenvalues --   -0.43278  -0.42495  -0.42062  -0.41676  -0.41646
 Alpha  occ. eigenvalues --   -0.41133  -0.41091  -0.40430  -0.39924  -0.39767
 Alpha  occ. eigenvalues --   -0.39721  -0.39705  -0.38124  -0.37444  -0.37062
 Alpha  occ. eigenvalues --   -0.36318  -0.36255  -0.35702  -0.35456  -0.35452
 Alpha  occ. eigenvalues --   -0.34891  -0.33851  -0.33505  -0.31646  -0.30402
 Alpha  occ. eigenvalues --   -0.29479  -0.29039  -0.28199  -0.27624  -0.26855
 Alpha  occ. eigenvalues --   -0.26435  -0.25258  -0.25106  -0.24016  -0.23867
 Alpha  occ. eigenvalues --   -0.23522  -0.23262  -0.22963  -0.22596  -0.22498
 Alpha  occ. eigenvalues --   -0.21900  -0.21791  -0.21769  -0.21644  -0.21142
 Alpha  occ. eigenvalues --   -0.20967  -0.19668  -0.18160  -0.15926  -0.13695
 Alpha  occ. eigenvalues --   -0.12932
 Alpha virt. eigenvalues --   -0.10062  -0.08371  -0.08273  -0.08065  -0.06120
 Alpha virt. eigenvalues --   -0.05978  -0.04956  -0.04673  -0.04304  -0.04121
 Alpha virt. eigenvalues --   -0.03905  -0.02442  -0.02232  -0.01613  -0.01591
 Alpha virt. eigenvalues --   -0.01013  -0.00854  -0.00651  -0.00383  -0.00245
 Alpha virt. eigenvalues --    0.00638   0.00881   0.01606   0.01693   0.02290
 Alpha virt. eigenvalues --    0.02474   0.02779   0.02980   0.03422   0.03477
 Alpha virt. eigenvalues --    0.03761   0.03838   0.03919   0.04457   0.04895
 Alpha virt. eigenvalues --    0.05077   0.05112   0.05489   0.05659   0.05858
 Alpha virt. eigenvalues --    0.06026   0.06384   0.06542   0.06677   0.06763
 Alpha virt. eigenvalues --    0.06884   0.07188   0.07265   0.07321   0.07398
 Alpha virt. eigenvalues --    0.07524   0.07556   0.07878   0.08006   0.08228
 Alpha virt. eigenvalues --    0.08371   0.08572   0.08742   0.08833   0.09031
 Alpha virt. eigenvalues --    0.09386   0.09506   0.09787   0.09820   0.10106
 Alpha virt. eigenvalues --    0.10172   0.10483   0.10550   0.10671   0.10741
 Alpha virt. eigenvalues --    0.10833   0.11090   0.11314   0.11699   0.11776
 Alpha virt. eigenvalues --    0.11877   0.12143   0.12198   0.12297   0.12438
 Alpha virt. eigenvalues --    0.12749   0.12848   0.13124   0.13676   0.13730
 Alpha virt. eigenvalues --    0.13854   0.14010   0.14297   0.14446   0.14530
 Alpha virt. eigenvalues --    0.15173   0.15220   0.15523   0.15752   0.15912
 Alpha virt. eigenvalues --    0.16042   0.16101   0.16410   0.16533   0.16590
 Alpha virt. eigenvalues --    0.16746   0.16924   0.17071   0.17139   0.17365
 Alpha virt. eigenvalues --    0.17398   0.17519   0.17936   0.18335   0.18446
 Alpha virt. eigenvalues --    0.18598   0.18808   0.19008   0.19278   0.19330
 Alpha virt. eigenvalues --    0.19836   0.19936   0.19988   0.20154   0.20240
 Alpha virt. eigenvalues --    0.20321   0.20459   0.20543   0.20746   0.21006
 Alpha virt. eigenvalues --    0.21087   0.21335   0.21622   0.21881   0.22191
 Alpha virt. eigenvalues --    0.22473   0.22658   0.22666   0.22859   0.23327
 Alpha virt. eigenvalues --    0.23489   0.24056   0.24265   0.24295   0.24526
 Alpha virt. eigenvalues --    0.24806   0.24984   0.25301   0.25528   0.25906
 Alpha virt. eigenvalues --    0.26054   0.26124   0.26706   0.26735   0.26921
 Alpha virt. eigenvalues --    0.26967   0.27161   0.27300   0.27511   0.27891
 Alpha virt. eigenvalues --    0.27999   0.28513   0.28568   0.28971   0.29407
 Alpha virt. eigenvalues --    0.29657   0.29732   0.30112   0.30205   0.30311
 Alpha virt. eigenvalues --    0.30549   0.30679   0.30769   0.31077   0.31362
 Alpha virt. eigenvalues --    0.31722   0.32272   0.32481   0.32630   0.33062
 Alpha virt. eigenvalues --    0.33630   0.33888   0.33993   0.34094   0.34387
 Alpha virt. eigenvalues --    0.34429   0.34773   0.35038   0.35150   0.35446
 Alpha virt. eigenvalues --    0.35612   0.36310   0.36747   0.37171   0.37496
 Alpha virt. eigenvalues --    0.37796   0.38022   0.38304   0.38470   0.38639
 Alpha virt. eigenvalues --    0.39092   0.39455   0.39745   0.39804   0.40064
 Alpha virt. eigenvalues --    0.40404   0.40627   0.40888   0.40980   0.42185
 Alpha virt. eigenvalues --    0.42346   0.42574   0.42907   0.43086   0.43265
 Alpha virt. eigenvalues --    0.43627   0.43666   0.43744   0.44475   0.44723
 Alpha virt. eigenvalues --    0.45222   0.45620   0.46054   0.46216   0.46405
 Alpha virt. eigenvalues --    0.46880   0.47140   0.47719   0.47807   0.47898
 Alpha virt. eigenvalues --    0.48498   0.48603   0.48923   0.49234   0.49565
 Alpha virt. eigenvalues --    0.49961   0.50046   0.50560   0.51206   0.51462
 Alpha virt. eigenvalues --    0.51661   0.51969   0.52309   0.52699   0.52992
 Alpha virt. eigenvalues --    0.53138   0.53446   0.53814   0.54463   0.54868
 Alpha virt. eigenvalues --    0.55225   0.55730   0.56043   0.56088   0.56265
 Alpha virt. eigenvalues --    0.56429   0.56870   0.57012   0.57664   0.57739
 Alpha virt. eigenvalues --    0.58006   0.58611   0.58789   0.59256   0.59631
 Alpha virt. eigenvalues --    0.59766   0.60107   0.60841   0.61020   0.61387
 Alpha virt. eigenvalues --    0.62668   0.62814   0.63266   0.63610   0.65287
 Alpha virt. eigenvalues --    0.65977   0.66232   0.67071   0.68155   0.68541
 Alpha virt. eigenvalues --    0.68595   0.69152   0.69218   0.69967   0.70195
 Alpha virt. eigenvalues --    0.70392   0.71709   0.72417   0.72520   0.73012
 Alpha virt. eigenvalues --    0.73796   0.74326   0.74480   0.75456   0.75661
 Alpha virt. eigenvalues --    0.75784   0.76617   0.76636   0.76934   0.77356
 Alpha virt. eigenvalues --    0.78518   0.79421   0.79678   0.80128   0.80344
 Alpha virt. eigenvalues --    0.81065   0.82302   0.82629   0.83283   0.83386
 Alpha virt. eigenvalues --    0.83526   0.84880   0.84948   0.85303   0.85668
 Alpha virt. eigenvalues --    0.85882   0.86755   0.87362   0.87504   0.88061
 Alpha virt. eigenvalues --    0.88311   0.89113   0.89357   0.89581   0.90203
 Alpha virt. eigenvalues --    0.90842   0.91141   0.91970   0.92102   0.92377
 Alpha virt. eigenvalues --    0.92424   0.92501   0.93046   0.93545   0.93642
 Alpha virt. eigenvalues --    0.93871   0.94139   0.94901   0.95840   0.96380
 Alpha virt. eigenvalues --    0.96640   0.97084   0.97377   0.97657   0.98114
 Alpha virt. eigenvalues --    0.98438   0.99455   1.00020   1.00293   1.00497
 Alpha virt. eigenvalues --    1.00867   1.01681   1.02072   1.02218   1.02533
 Alpha virt. eigenvalues --    1.02629   1.03142   1.03408   1.03442   1.03482
 Alpha virt. eigenvalues --    1.04451   1.05080   1.05592   1.06148   1.06433
 Alpha virt. eigenvalues --    1.06808   1.06894   1.07293   1.07331   1.08296
 Alpha virt. eigenvalues --    1.08849   1.09894   1.11176   1.11702   1.11989
 Alpha virt. eigenvalues --    1.12638   1.12950   1.13370   1.13547   1.15327
 Alpha virt. eigenvalues --    1.16360   1.17138   1.17997   1.18471   1.18933
 Alpha virt. eigenvalues --    1.19509   1.20113   1.21114   1.21918   1.22076
 Alpha virt. eigenvalues --    1.22504   1.23128   1.23891   1.24028   1.25413
 Alpha virt. eigenvalues --    1.25793   1.25859   1.25903   1.26568   1.27431
 Alpha virt. eigenvalues --    1.28023   1.28333   1.28487   1.29058   1.30015
 Alpha virt. eigenvalues --    1.30550   1.30553   1.30842   1.31199   1.31878
 Alpha virt. eigenvalues --    1.32149   1.33023   1.33189   1.34918   1.35393
 Alpha virt. eigenvalues --    1.36384   1.37218   1.38048   1.38079   1.38852
 Alpha virt. eigenvalues --    1.39222   1.39494   1.39674   1.40237   1.40356
 Alpha virt. eigenvalues --    1.40555   1.41280   1.41378   1.41791   1.42128
 Alpha virt. eigenvalues --    1.42610   1.42876   1.42991   1.43043   1.43876
 Alpha virt. eigenvalues --    1.44400   1.44714   1.45661   1.45999   1.46877
 Alpha virt. eigenvalues --    1.46924   1.47002   1.47751   1.48465   1.49200
 Alpha virt. eigenvalues --    1.49579   1.50076   1.50619   1.50686   1.50764
 Alpha virt. eigenvalues --    1.51159   1.51510   1.51982   1.53718   1.54244
 Alpha virt. eigenvalues --    1.54406   1.55469   1.55480   1.55543   1.56188
 Alpha virt. eigenvalues --    1.57607   1.57626   1.57847   1.58660   1.59586
 Alpha virt. eigenvalues --    1.59804   1.60428   1.60759   1.61426   1.62045
 Alpha virt. eigenvalues --    1.62380   1.62745   1.63196   1.63776   1.64793
 Alpha virt. eigenvalues --    1.65812   1.66479   1.68299   1.69434   1.70108
 Alpha virt. eigenvalues --    1.71062   1.71568   1.71713   1.72486   1.73455
 Alpha virt. eigenvalues --    1.73962   1.74549   1.75903   1.76396   1.76687
 Alpha virt. eigenvalues --    1.76932   1.79004   1.79255   1.79899   1.80345
 Alpha virt. eigenvalues --    1.80379   1.81464   1.82215   1.83304   1.83877
 Alpha virt. eigenvalues --    1.84353   1.84808   1.84908   1.85269   1.85721
 Alpha virt. eigenvalues --    1.85769   1.86058   1.86257   1.87254   1.87990
 Alpha virt. eigenvalues --    1.88219   1.88331   1.89054   1.89611   1.90012
 Alpha virt. eigenvalues --    1.90091   1.90413   1.90591   1.91152   1.91433
 Alpha virt. eigenvalues --    1.92404   1.92551   1.93171   1.93476   1.93735
 Alpha virt. eigenvalues --    1.94341   1.94475   1.94596   1.94725   1.94971
 Alpha virt. eigenvalues --    1.95278   1.95929   1.95994   1.96919   1.97346
 Alpha virt. eigenvalues --    1.97533   1.97658   1.98200   1.98308   1.98432
 Alpha virt. eigenvalues --    1.98667   1.98758   1.98920   1.99234   1.99484
 Alpha virt. eigenvalues --    1.99607   1.99824   2.00050   2.00398   2.00631
 Alpha virt. eigenvalues --    2.01311   2.01404   2.01693   2.01721   2.01933
 Alpha virt. eigenvalues --    2.01963   2.02332   2.02375   2.02559   2.03117
 Alpha virt. eigenvalues --    2.03607   2.03653   2.04200   2.04547   2.04955
 Alpha virt. eigenvalues --    2.05101   2.05477   2.05563   2.06154   2.06257
 Alpha virt. eigenvalues --    2.07942   2.08053   2.08440   2.08968   2.09082
 Alpha virt. eigenvalues --    2.09239   2.09516   2.10465   2.10563   2.11186
 Alpha virt. eigenvalues --    2.12918   2.13196   2.13307   2.13796   2.14393
 Alpha virt. eigenvalues --    2.14587   2.14781   2.16303   2.16762   2.17506
 Alpha virt. eigenvalues --    2.17555   2.19200   2.19392   2.20720   2.21027
 Alpha virt. eigenvalues --    2.22772   2.23292   2.23616   2.23916   2.24818
 Alpha virt. eigenvalues --    2.25198   2.25850   2.26272   2.28503   2.28598
 Alpha virt. eigenvalues --    2.29680   2.29920   2.30483   2.30829   2.31237
 Alpha virt. eigenvalues --    2.31483   2.31663   2.31931   2.31977   2.32392
 Alpha virt. eigenvalues --    2.32570   2.32617   2.32728   2.33079   2.33628
 Alpha virt. eigenvalues --    2.34027   2.35705   2.35995   2.36191   2.37702
 Alpha virt. eigenvalues --    2.38365   2.38446   2.39148   2.39170   2.39279
 Alpha virt. eigenvalues --    2.39634   2.40303   2.40345   2.40958   2.41796
 Alpha virt. eigenvalues --    2.43366   2.45370   2.47145   2.48272   2.48334
 Alpha virt. eigenvalues --    2.50061   2.50195   2.50582   2.51254   2.53664
 Alpha virt. eigenvalues --    2.54186   2.55086   2.55432   2.55676   2.56742
 Alpha virt. eigenvalues --    2.57059   2.57425   2.58198   2.58350   2.58635
 Alpha virt. eigenvalues --    2.59587   2.59661   2.60883   2.61338   2.61912
 Alpha virt. eigenvalues --    2.62645   2.62711   2.63732   2.64034   2.64262
 Alpha virt. eigenvalues --    2.64541   2.64830   2.66143   2.67091   2.67994
 Alpha virt. eigenvalues --    2.68179   2.68422   2.68701   2.69777   2.70237
 Alpha virt. eigenvalues --    2.70326   2.70930   2.72509   2.73142   2.73250
 Alpha virt. eigenvalues --    2.73536   2.74036   2.74965   2.75306   2.75486
 Alpha virt. eigenvalues --    2.75844   2.75949   2.76410   2.76808   2.76828
 Alpha virt. eigenvalues --    2.77412   2.79656   2.79785   2.80229   2.80546
 Alpha virt. eigenvalues --    2.82309   2.82643   2.83446   2.84195   2.85483
 Alpha virt. eigenvalues --    2.85604   2.85925   2.86571   2.86801   2.87024
 Alpha virt. eigenvalues --    2.87378   2.87873   2.89028   2.89334   2.89518
 Alpha virt. eigenvalues --    2.92027   2.95227   2.98661   2.99424   3.00038
 Alpha virt. eigenvalues --    3.03400   3.04713   3.06724   3.07415   3.07651
 Alpha virt. eigenvalues --    3.09685   3.10964   3.12418   3.13031   3.13557
 Alpha virt. eigenvalues --    3.13850   3.14117   3.15155   3.15821   3.16360
 Alpha virt. eigenvalues --    3.16833   3.17813   3.19314   3.21054   3.21234
 Alpha virt. eigenvalues --    3.22151   3.22454   3.23505   3.23953   3.27113
 Alpha virt. eigenvalues --    3.28045   3.29389   3.30609   3.31476   3.31656
 Alpha virt. eigenvalues --    3.32041   3.33360   3.33398   3.33523   3.34224
 Alpha virt. eigenvalues --    3.36064   3.37604   3.38126   3.39213   3.40386
 Alpha virt. eigenvalues --    3.41974   3.41993   3.42825   3.43701   3.43970
 Alpha virt. eigenvalues --    3.44054   3.44676   3.49666   3.51332   3.53474
 Alpha virt. eigenvalues --    3.53711   3.54235   3.54349   3.54670   3.58372
 Alpha virt. eigenvalues --    3.58982   3.72821   3.93638   8.73879  10.71246
 Alpha virt. eigenvalues --   11.50225
          Condensed to atoms (all electrons):
 Mulliken charges:
               1
     1  Zn   0.736460
     2  O   -0.518840
     3  O   -0.476347
     4  O   -0.455527
     5  O   -0.433606
     6  C    0.438956
     7  C    0.432046
     8  Zn   0.784264
     9  O   -0.453916
    10  O   -0.518460
    11  O   -0.411670
    12  O   -0.458222
    13  C    0.451536
    14  C    0.450466
    15  H    0.071853
    16  H    0.074713
    17  H    0.075370
    18  H    0.085257
    19  C   -0.289506
    20  C    0.067647
    21  C   -0.557920
    22  C    0.065962
    23  C   -0.291957
    24  N    0.195088
    25  H    0.138005
    26  H    0.199171
    27  H    0.138692
    28  H    0.139064
    29  H    0.200330
    30  C   -0.305208
    31  C    0.062102
    32  C   -0.240276
    33  O   -0.320044
    34  C   -0.230442
    35  C   -0.018169
    36  C   -0.078530
    37  O   -0.251801
    38  H    0.126893
    39  H    0.139305
    40  H    0.127875
    41  H    0.111766
    42  H    0.139465
    43  H    0.124600
    44  H    0.136604
    45  H    0.148459
    46  H    0.197305
    47  H    0.186655
    48  N   -0.711736
    49  C    0.078088
    50  C   -0.609952
    51  H    0.192103
    52  H    0.188693
    53  H    0.186525
    54  H    0.173389
    55  H    0.179595
    56  C    0.046252
    57  C   -0.558077
    58  H    0.194658
    59  H    0.191794
    60  H    0.195896
    61  H    0.178503
    62  H    0.174565
    63  C    0.120314
    64  C   -0.536210
    65  H    0.188176
    66  H    0.194469
    67  H    0.188946
    68  H    0.171440
    69  H    0.175359
    70  C    0.033509
    71  C   -0.542281
    72  H    0.187299
    73  H    0.183072
    74  H    0.191362
    75  H    0.176774
    76  H    0.167490
    77  Br  -0.293424
    78  C    0.384989
    79  O   -0.498727
    80  O   -0.528324
 Sum of Mulliken charges =   0.00000
 Mulliken charges with hydrogens summed into heavy atoms:
               1
     1  Zn   0.736460
     2  O   -0.518840
     3  O   -0.476347
     4  O   -0.455527
     5  O   -0.433606
     6  C    0.510809
     7  C    0.506759
     8  Zn   0.784264
     9  O   -0.453916
    10  O   -0.518460
    11  O   -0.411670
    12  O   -0.458222
    13  C    0.526906
    14  C    0.535723
    19  C   -0.090335
    20  C    0.206339
    21  C   -0.419914
    22  C    0.205026
    23  C   -0.091627
    24  N    0.195088
    30  C   -0.039010
    31  C    0.189976
    32  C    0.010956
    33  O   -0.320044
    34  C    0.030762
    35  C    0.130290
    36  C    0.305431
    37  O   -0.251801
    48  N   -0.711736
    49  C    0.458884
    50  C   -0.070443
    56  C    0.432704
    57  C   -0.009113
    63  C    0.502960
    64  C   -0.000465
    70  C    0.403881
    71  C   -0.006655
    77  Br  -0.293424
    78  C    0.384989
    79  O   -0.498727
    80  O   -0.528324
 Electronic spatial extent (au):  <R**2>=          97050.1279
 Charge=              0.0000 electrons
 Dipole moment (field-independent basis, Debye):
    X=             29.2400    Y=             48.4171    Z=            -54.0271  Tot=             78.2184
 Quadrupole moment (field-independent basis, Debye-Ang):
   XX=            146.9593   YY=            -11.0290   ZZ=            133.9367
   XY=            377.8827   XZ=           -444.8965   YZ=           -317.8603
 Traceless Quadrupole moment (field-independent basis, Debye-Ang):
   XX=             57.0037   YY=           -100.9847   ZZ=             43.9810
   XY=            377.8827   XZ=           -444.8965   YZ=           -317.8603
 Octapole moment (field-independent basis, Debye-Ang**2):
  XXX=           2295.3292  YYY=           1978.5930  ZZZ=          -3803.0106  XYY=           2367.3382
  XXY=           3022.9520  XXZ=          -3708.0010  XZZ=           3635.4841  YZZ=           3283.3343
  YYZ=          -2754.2228  XYZ=          -3172.9500
 Hexadecapole moment (field-independent basis, Debye-Ang**3):
 XXXX=         -10428.0245 YYYY=          -9724.2233 ZZZZ=           1956.2830 XXXY=          17025.6224
 XXXZ=         -21786.5875 YYYX=           5875.6272 YYYZ=          -8432.7943 ZZZX=         -20874.7371
 ZZZY=         -18588.6460 XXYY=          12195.9152 XXZZ=          21621.7090 YYZZ=          15336.0240
 XXYZ=         -25945.4619 YYXZ=         -20238.5136 ZZXY=          25717.6392
 N-N= 5.111166154548D+03 E-N=-2.140649641112D+04  KE= 4.736801533422D+03
  Exact polarizability:     488.201      28.788     384.711     -29.408     -12.001     402.112
 Approx polarizability:     686.088      12.575     539.363     -17.451     -14.813     545.249
   1 Symmetry operations used in ECPInt.
 ECPInt:  NShTT=   55278 NPrTT=  248328 LenC2=   27738 LenP2D=   74627.
 LDataN:  DoStor=T MaxTD1= 7 Len=  274
 Calling FoFJK, ICntrl=    100127 FMM=F ISym2X=0 I1Cent= 0 IOpClX= 0 NMat=1 NMatS=1 NMatT=0.
 -------------------------------------------------------------------
 Center     Atomic                   Forces (Hartrees/Bohr)
 Number     Number              X              Y              Z
 -------------------------------------------------------------------
      1       30          -0.000000000   -0.000000000   -0.000000000
      2        8          -0.000000000   -0.000000000   -0.000000000
      3        8           0.005041958   -0.003548850   -0.001968179
      4        8          -0.000000000   -0.000000000   -0.000000000
      5        8           0.010896716   -0.005326657    0.007917632
      6        6          -0.000000000   -0.000000000   -0.000000000
      7        6          -0.000000000   -0.000000000   -0.000000000
      8       30          -0.003201251    0.000337633   -0.007168655
      9        8           0.004209013    0.002593898    0.002664424
     10        8          -0.000000000   -0.000000000   -0.000000000
     11        8           0.013009011    0.008281671   -0.007866340
     12        8          -0.000000000   -0.000000000   -0.000000000
     13        6          -0.000000000   -0.000000000   -0.000000000
     14        6          -0.000000000   -0.000000000   -0.000000000
     15        1          -0.000000000   -0.000000000   -0.000000000
     16        1          -0.000000000   -0.000000000   -0.000000000
     17        1          -0.000000000   -0.000000000   -0.000000000
     18        1          -0.000000000   -0.000000000   -0.000000000
     19        6          -0.000000000   -0.000000000   -0.000000000
     20        6          -0.000000000   -0.000000000   -0.000000000
     21        6          -0.000000000   -0.000000000   -0.000000000
     22        6          -0.000000000   -0.000000000   -0.000000000
     23        6          -0.000000000   -0.000000000   -0.000000000
     24        7          -0.000000000   -0.000000000   -0.000000000
     25        1          -0.000000000   -0.000000000   -0.000000000
     26        1          -0.000000000   -0.000000000   -0.000000000
     27        1          -0.000000000   -0.000000000   -0.000000000
     28        1          -0.000000000   -0.000000000   -0.000000000
     29        1          -0.000000000   -0.000000000   -0.000000000
     30        6          -0.000212841   -0.000357951   -0.001093284
     31        6           0.000479116   -0.000146521    0.001149422
     32        6          -0.001526000    0.003123173    0.002405206
     33        8           0.000137626   -0.003437688   -0.007068532
     34        6          -0.004987600   -0.005561316    0.010939142
     35        6           0.046375104    0.008944791    0.001328839
     36        6           0.001472148   -0.000528436   -0.004176047
     37        8          -0.044441112   -0.062112773    0.031077487
     38        1          -0.000081901   -0.000098372   -0.000500139
     39        1           0.000019665    0.000021176    0.000260591
     40        1          -0.000310274    0.000089083   -0.000248718
     41        1          -0.000043161   -0.000867419   -0.000117867
     42        1           0.000012592    0.000312491    0.000201476
     43        1           0.000761880   -0.004274412   -0.001723089
     44        1          -0.001860950   -0.000741511    0.000345935
     45        1          -0.002010044    0.000961049   -0.001445362
     46        1          -0.001110575   -0.000039399   -0.000403044
     47        1          -0.000295829   -0.000618611   -0.000704500
     48        7          -0.000000000   -0.000000000   -0.000000000
     49        6          -0.000000000   -0.000000000   -0.000000000
     50        6          -0.000000000   -0.000000000   -0.000000000
     51        1          -0.000000000   -0.000000000   -0.000000000
     52        1          -0.000000000   -0.000000000   -0.000000000
     53        1          -0.000000000   -0.000000000   -0.000000000
     54        1          -0.000000000   -0.000000000   -0.000000000
     55        1          -0.000000000   -0.000000000   -0.000000000
     56        6          -0.000000000   -0.000000000   -0.000000000
     57        6          -0.000000000   -0.000000000   -0.000000000
     58        1          -0.000000000   -0.000000000   -0.000000000
     59        1          -0.000000000   -0.000000000   -0.000000000
     60        1          -0.000000000   -0.000000000   -0.000000000
     61        1          -0.000000000   -0.000000000   -0.000000000
     62        1          -0.000000000   -0.000000000   -0.000000000
     63        6          -0.000000000   -0.000000000   -0.000000000
     64        6          -0.000000000   -0.000000000   -0.000000000
     65        1          -0.000000000   -0.000000000   -0.000000000
     66        1          -0.000000000   -0.000000000   -0.000000000
     67        1          -0.000000000   -0.000000000   -0.000000000
     68        1          -0.000000000   -0.000000000   -0.000000000
     69        1          -0.000000000   -0.000000000   -0.000000000
     70        6          -0.000000000   -0.000000000   -0.000000000
     71        6          -0.000000000   -0.000000000   -0.000000000
     72        1          -0.000000000   -0.000000000   -0.000000000
     73        1          -0.000000000   -0.000000000   -0.000000000
     74        1          -0.000000000   -0.000000000   -0.000000000
     75        1          -0.000000000   -0.000000000   -0.000000000
     76        1          -0.000000000   -0.000000000   -0.000000000
     77       35          -0.004884014   -0.005278585    0.007395290
     78        6          -0.046727044   -0.055814836    0.076745819
     79        8           0.139697727    0.037783561   -0.023341843
     80        8          -0.099774195    0.087769600   -0.086519584
 -------------------------------------------------------------------
 Cartesian Forces:  Max     0.139697727 RMS     0.016822311

 GradGradGradGradGradGradGradGradGradGradGradGradGradGradGradGradGradGrad
 Berny optimization.
 Search for a local minimum.
 Step number   1 out of a maximum of  250
 All quantities printed in internal units (Hartrees-Bohrs-Radians)
 Second derivative matrix not updated -- analytic derivatives used.
 ITU=  0
     Eigenvalues ---   -0.17629  -0.08629  -0.00549  -0.00277  -0.00035
     Eigenvalues ---   -0.00005   0.00002   0.00011   0.00017   0.00033
     Eigenvalues ---    0.00076   0.00155   0.00303   0.00397   0.00695
     Eigenvalues ---    0.00908   0.01229   0.01385   0.01536   0.01762
     Eigenvalues ---    0.02202   0.02319   0.02363   0.02679   0.02736
     Eigenvalues ---    0.02872   0.03602   0.03646   0.04558   0.04673
     Eigenvalues ---    0.04686   0.04695   0.05202   0.05263   0.06052
     Eigenvalues ---    0.06107   0.07011   0.07449   0.08164   0.08254
     Eigenvalues ---    0.09137   0.09747   0.09788   0.10224   0.11578
     Eigenvalues ---    0.12397   0.12816   0.14242   0.14354   0.14701
     Eigenvalues ---    0.15428   0.16559   0.17377   0.18308   0.18763
     Eigenvalues ---    0.21084   0.21261   0.22260   0.23519   0.25428
     Eigenvalues ---    0.31622   0.34686   0.41567   0.49299   0.57523
     Eigenvalues ---    0.61937   0.65250   0.65931   0.66446   0.68329
     Eigenvalues ---    0.70497   0.71664   0.73136   0.75698   0.78944
     Eigenvalues ---    0.79965   0.85787   0.87561   0.93208   0.98086
     Eigenvalues ---    1.46071
 RFO step:  Lambda=-2.92156816D-01 EMin=-1.76289864D-01
 Linear search not attempted -- first point.
 Maximum step size (   0.300) exceeded in Quadratic search.
    -- Step size scaled by   0.302
 Variable       Old X    -DE/DX   Delta X   Delta X   Delta X     New X
                                 (Linear)    (Quad)   (Total)
    X1       -8.87130  -0.00000   0.00000   0.00000   0.00000  -8.87130
    Y1       -4.77894  -0.00000   0.00000   0.00000   0.00000  -4.77894
    Z1        4.39610  -0.00000   0.00000   0.00000   0.00000   4.39610
    X2       -8.69278  -0.00000   0.00000   0.00000   0.00000  -8.69278
    Y2       -1.76072  -0.00000   0.00000   0.00000   0.00000  -1.76072
    Z2        6.86228  -0.00000   0.00000   0.00000   0.00000   6.86228
    X3       -4.42693   0.00504   0.00000   0.00114   0.00114  -4.42579
    Y3       -1.61741  -0.00355   0.00000  -0.00102  -0.00102  -1.61843
    Z3        6.68581  -0.00197   0.00000   0.00005   0.00005   6.68585
    X4       -7.12691  -0.00000   0.00000   0.00000   0.00000  -7.12691
    Y4       -2.41835  -0.00000   0.00000   0.00000   0.00000  -2.41835
    Z4        1.56513  -0.00000   0.00000   0.00000   0.00000   1.56513
    X5       -2.87386   0.01090   0.00000   0.00336   0.00336  -2.87050
    Y5       -2.09127  -0.00533   0.00000  -0.00182  -0.00182  -2.09309
    Z5        1.26178   0.00792   0.00000   0.00290   0.00290   1.26468
    X6       -6.54077  -0.00000   0.00000   0.00000   0.00000  -6.54077
    Y6       -0.88593  -0.00000   0.00000   0.00000   0.00000  -0.88593
    Z6        7.45070  -0.00000   0.00000   0.00000   0.00000   7.45070
    X7       -5.10895  -0.00000   0.00000   0.00000   0.00000  -5.10895
    Y7       -1.59236  -0.00000   0.00000   0.00000   0.00000  -1.59236
    Z7        0.60706  -0.00000   0.00000   0.00000   0.00000   0.60706
    X8       -2.22082  -0.00320   0.00000   0.02638   0.02638  -2.19444
    Y8       -4.55081   0.00034   0.00000  -0.00075  -0.00075  -4.55156
    Z8        4.22387  -0.00717   0.00000  -0.00903  -0.00903   4.21484
    X9       -4.31742   0.00421   0.00000   0.00127   0.00127  -4.31615
    Y9       -7.53697   0.00259   0.00000   0.00025   0.00025  -7.53673
    Z9        1.83123   0.00266   0.00000   0.00055   0.00055   1.83179
   X10       -8.57814  -0.00000   0.00000   0.00000   0.00000  -8.57814
   Y10       -7.77728  -0.00000   0.00000   0.00000   0.00000  -7.77728
   Z10        1.91665  -0.00000   0.00000   0.00000   0.00000   1.91665
   X11       -2.51599   0.01301   0.00000   0.00372   0.00372  -2.51226
   Y11       -6.97879   0.00828   0.00000   0.00393   0.00393  -6.97486
   Z11        7.18715  -0.00787   0.00000  -0.00340  -0.00340   7.18375
   X12       -6.79018  -0.00000   0.00000   0.00000   0.00000  -6.79018
   Y12       -6.98145  -0.00000   0.00000   0.00000   0.00000  -6.98145
   Z12        7.12537  -0.00000   0.00000   0.00000   0.00000   7.12537
   X13       -6.39654  -0.00000   0.00000   0.00000   0.00000  -6.39654
   Y13       -8.47500  -0.00000   0.00000   0.00000   0.00000  -8.47500
   Z13        1.21201  -0.00000   0.00000   0.00000   0.00000   1.21201
   X14       -4.66305  -0.00000   0.00000   0.00000   0.00000  -4.66305
   Y14       -7.63753  -0.00000   0.00000   0.00000   0.00000  -7.63753
   Z14        7.97226  -0.00000   0.00000   0.00000   0.00000   7.97226
   X15       -6.52977  -0.00000   0.00000   0.00000   0.00000  -6.52977
   Y15        0.72534  -0.00000   0.00000   0.00000   0.00000   0.72534
   Z15        8.77271  -0.00000   0.00000   0.00000   0.00000   8.77271
   X16       -5.27373  -0.00000   0.00000   0.00000   0.00000  -5.27373
   Y16       -0.27619  -0.00000   0.00000   0.00000   0.00000  -0.27619
   Z16       -0.99695  -0.00000   0.00000   0.00000   0.00000  -0.99695
   X17       -6.32498  -0.00000   0.00000   0.00000   0.00000  -6.32498
   Y17      -10.08270  -0.00000   0.00000   0.00000   0.00000 -10.08270
   Z17       -0.11244  -0.00000   0.00000   0.00000   0.00000  -0.11244
   X18       -4.63355  -0.00000   0.00000   0.00000   0.00000  -4.63355
   Y18       -8.95827  -0.00000   0.00000   0.00000   0.00000  -8.95827
   Z18        9.58071  -0.00000   0.00000   0.00000   0.00000   9.58071
   X19      -14.23690  -0.00000   0.00000   0.00000   0.00000 -14.23690
   Y19       -3.30988  -0.00000   0.00000   0.00000   0.00000  -3.30988
   Z19        5.94204  -0.00000   0.00000   0.00000   0.00000   5.94204
   X20      -16.86616  -0.00000   0.00000   0.00000   0.00000 -16.86616
   Y20       -3.36328  -0.00000   0.00000   0.00000   0.00000  -3.36328
   Z20        6.06550  -0.00000   0.00000   0.00000   0.00000   6.06550
   X21      -18.17065  -0.00000   0.00000   0.00000   0.00000 -18.17065
   Y21       -5.17382  -0.00000   0.00000   0.00000   0.00000  -5.17382
   Z21        4.65857  -0.00000   0.00000   0.00000   0.00000   4.65857
   X22      -16.79864  -0.00000   0.00000   0.00000   0.00000 -16.79864
   Y22       -6.86999  -0.00000   0.00000   0.00000   0.00000  -6.86999
   Z22        3.17539  -0.00000   0.00000   0.00000   0.00000   3.17539
   X23      -14.17165  -0.00000   0.00000   0.00000   0.00000 -14.17165
   Y23       -6.69889  -0.00000   0.00000   0.00000   0.00000  -6.69889
   Z23        3.14927  -0.00000   0.00000   0.00000   0.00000   3.14927
   X24      -12.91531  -0.00000   0.00000   0.00000   0.00000 -12.91531
   Y24       -4.94935  -0.00000   0.00000   0.00000   0.00000  -4.94935
   Z24        4.50899  -0.00000   0.00000   0.00000   0.00000   4.50899
   X25      -20.22042  -0.00000   0.00000   0.00000   0.00000 -20.22042
   Y25       -5.26143  -0.00000   0.00000   0.00000   0.00000  -5.26143
   Z25        4.71697  -0.00000   0.00000   0.00000   0.00000   4.71697
   X26      -13.12027  -0.00000   0.00000   0.00000   0.00000 -13.12027
   Y26       -1.94712  -0.00000   0.00000   0.00000   0.00000  -1.94712
   Z26        6.99214  -0.00000   0.00000   0.00000   0.00000   6.99214
   X27      -17.85649  -0.00000   0.00000   0.00000   0.00000 -17.85649
   Y27       -2.00886  -0.00000   0.00000   0.00000   0.00000  -2.00886
   Z27        7.24314  -0.00000   0.00000   0.00000   0.00000   7.24314
   X28      -17.73520  -0.00000   0.00000   0.00000   0.00000 -17.73520
   Y28       -8.30676  -0.00000   0.00000   0.00000   0.00000  -8.30676
   Z28        2.05265  -0.00000   0.00000   0.00000   0.00000   2.05265
   X29      -13.00437  -0.00000   0.00000   0.00000   0.00000 -13.00437
   Y29       -7.96424  -0.00000   0.00000   0.00000   0.00000  -7.96424
   Z29        2.03436  -0.00000   0.00000   0.00000   0.00000   2.03436
   X30        4.82325  -0.00021   0.00000   0.00033   0.00033   4.82359
   Y30        5.46609  -0.00036   0.00000  -0.00054  -0.00054   5.46556
   Z30       10.06884  -0.00109   0.00000  -0.00143  -0.00143  10.06741
   X31        6.07773   0.00048   0.00000   0.00098   0.00098   6.07871
   Y31        5.62653  -0.00015   0.00000  -0.00012  -0.00012   5.62641
   Z31        7.88364   0.00115   0.00000  -0.00074  -0.00074   7.88290
   X32        4.96359  -0.00153   0.00000   0.00121   0.00121   4.96480
   Y32        5.05308   0.00312   0.00000   0.00140   0.00140   5.05448
   Z32        5.33775   0.00241   0.00000  -0.00097  -0.00097   5.33678
   X33        6.62318   0.00014   0.00000   0.00404   0.00404   6.62722
   Y33        3.43159  -0.00344   0.00000   0.00440   0.00440   3.43600
   Z33        4.00675  -0.00707   0.00000  -0.00427  -0.00427   4.00248
   X34        5.87212  -0.00499   0.00000   0.00425   0.00425   5.87637
   Y34        3.02438  -0.00556   0.00000  -0.00356  -0.00356   3.02082
   Z34        1.44581   0.01094   0.00000   0.00089   0.00089   1.44671
   X35        6.95799   0.04638   0.00000   0.00820   0.00820   6.96619
   Y35        0.49611   0.00894   0.00000  -0.01460  -0.01460   0.48151
   Z35        0.53145   0.00133   0.00000   0.01141   0.01141   0.54286
   X36        6.71982   0.00147   0.00000  -0.00885  -0.00885   6.71097
   Y36        0.19593  -0.00053   0.00000  -0.01483  -0.01483   0.18110
   Z36       -2.34679  -0.00418   0.00000   0.00757   0.00757  -2.33922
   X37        5.76093  -0.04444   0.00000  -0.03058  -0.03058   5.73035
   Y37       -1.59897  -0.06211   0.00000  -0.00994  -0.00994  -1.60892
   Z37        1.53705   0.03108   0.00000   0.04360   0.04360   1.58066
   X38        5.70768  -0.00008   0.00000   0.00026   0.00026   5.70794
   Y38        5.95224  -0.00010   0.00000  -0.00026  -0.00026   5.95199
   Z38       11.85794  -0.00050   0.00000  -0.00151  -0.00151  11.85643
   X39        2.87625   0.00002   0.00000   0.00032   0.00032   2.87657
   Y39        4.81096   0.00002   0.00000  -0.00018  -0.00018   4.81078
   Z39       10.14161   0.00026   0.00000  -0.00104  -0.00104  10.14057
   X40        8.04836  -0.00031   0.00000   0.00062   0.00062   8.04899
   Y40        6.22746   0.00009   0.00000   0.00051   0.00051   6.22797
   Z40        7.86425  -0.00025   0.00000  -0.00068  -0.00068   7.86358
   X41        4.72549  -0.00004   0.00000  -0.00181  -0.00181   4.72367
   Y41        6.84661  -0.00087   0.00000   0.00124   0.00124   6.84785
   Z41        4.28208  -0.00012   0.00000   0.00035   0.00035   4.28243
   X42        3.08632   0.00001   0.00000   0.00295   0.00295   3.08928
   Y42        4.17764   0.00031   0.00000  -0.00250  -0.00250   4.17513
   Z42        5.52920   0.00020   0.00000  -0.00203  -0.00203   5.52717
   X43        6.56212   0.00076   0.00000   0.00941   0.00941   6.57153
   Y43        4.60308  -0.00427   0.00000  -0.00657  -0.00657   4.59651
   Z43        0.27500  -0.00172   0.00000  -0.00558  -0.00558   0.26942
   X44        3.80410  -0.00186   0.00000   0.00342   0.00342   3.80752
   Y44        2.94908  -0.00074   0.00000   0.00712   0.00712   2.95620
   Z44        1.29959   0.00035   0.00000  -0.00367  -0.00367   1.29592
   X45        8.98640  -0.00201   0.00000   0.00008   0.00008   8.98648
   Y45        0.48904   0.00096   0.00000  -0.01393  -0.01393   0.47511
   Z45        1.03605  -0.00145   0.00000   0.00218   0.00218   1.03823
   X46        7.45415  -0.00111   0.00000  -0.01336  -0.01336   7.44080
   Y46       -1.63243  -0.00004   0.00000  -0.01385  -0.01385  -1.64627
   Z46       -2.92838  -0.00040   0.00000   0.00334   0.00334  -2.92504
   X47        4.79020  -0.00030   0.00000  -0.00802  -0.00802   4.78218
   Y47        0.47230  -0.00062   0.00000  -0.00789  -0.00789   0.46441
   Z47       -3.00433  -0.00070   0.00000   0.00478   0.00478  -2.99956
   X48       17.61915  -0.00000   0.00000   0.00000   0.00000  17.61915
   Y48       14.88838  -0.00000   0.00000   0.00000   0.00000  14.88838
   Z48      -17.79806  -0.00000   0.00000   0.00000   0.00000 -17.79806
   X49       16.58271  -0.00000   0.00000   0.00000   0.00000  16.58271
   Y49       16.37692  -0.00000   0.00000   0.00000   0.00000  16.37692
   Z49      -20.08303  -0.00000   0.00000   0.00000   0.00000 -20.08303
   X50       13.73912  -0.00000   0.00000   0.00000   0.00000  13.73912
   Y50       16.29489  -0.00000   0.00000   0.00000   0.00000  16.29489
   Z50      -20.54615  -0.00000   0.00000   0.00000   0.00000 -20.54615
   X51       17.59910  -0.00000   0.00000   0.00000   0.00000  17.59910
   Y51       15.62936  -0.00000   0.00000   0.00000   0.00000  15.62936
   Z51      -21.73414  -0.00000   0.00000   0.00000   0.00000 -21.73414
   X52       17.15535  -0.00000   0.00000   0.00000   0.00000  17.15535
   Y52       18.33393  -0.00000   0.00000   0.00000   0.00000  18.33393
   Z52      -19.74950  -0.00000   0.00000   0.00000   0.00000 -19.74950
   X53       13.42382  -0.00000   0.00000   0.00000   0.00000  13.42382
   Y53       17.30425  -0.00000   0.00000   0.00000   0.00000  17.30425
   Z53      -22.32412  -0.00000   0.00000   0.00000   0.00000 -22.32412
   X54       13.00838  -0.00000   0.00000   0.00000   0.00000  13.00838
   Y54       14.38781  -0.00000   0.00000   0.00000   0.00000  14.38781
   Z54      -20.81292  -0.00000   0.00000   0.00000   0.00000 -20.81292
   X55       12.62969  -0.00000   0.00000   0.00000   0.00000  12.62969
   Y55       17.25110  -0.00000   0.00000   0.00000   0.00000  17.25110
   Z55      -19.08670  -0.00000   0.00000   0.00000   0.00000 -19.08670
   X56       15.85821  -0.00000   0.00000   0.00000   0.00000  15.85821
   Y56       15.21096  -0.00000   0.00000   0.00000   0.00000  15.21096
   Z56      -15.55558  -0.00000   0.00000   0.00000   0.00000 -15.55558
[...]
 .,0.,0.,0.,0.,0.,0.,0.,0.,0.,0.,0.,0.,0.,0.,0.,0.,0.,0.,0.,0.,0.,0.,0.
 ,0.,0.,0.,0.,0.,0.,0.,0.,0.,0.,0.,0.,0.,0.,0.,0.,0.,0.,0.,0.,0.,0.,0.,
 0.,0.,0.,0.,0.,0.,0.,0.,0.,0.,0.,0.,0.,0.,0.,0.,0.,0.,0.,0.,0.,0.,0.,0
 .,0.,0.,0.,0.,0.,0.,0.,0.,0.,0.,0.,0.,0.,0.,0.,0.,0.,0.,0.,0.,0.,0.,0.
 ,0.,0.,0.,0.,0.,0.,0.,0.,0.,0.,0.,0.,0.,0.,0.,0.,0.,0.,0.,0.,0.,0.,0.,
 0.,0.,0.,0.,0.,0.,0.,0.,0.,0.,0.,0.,0.,0.,0.,0.,0.,0.,0.,0.,0.,0.,0.,0
 .,0.,0.,0.,0.,0.,0.,0.,0.,0.,0.,0.,0.,0.,0.,0.,0.,0.,0.,0.,0.,0.,0.,0.
 ,0.,0.,0.,0.,0.,0.,0.,0.,0.,0.,0.,0.,0.,0.,0.,0.,0.,0.,0.,0.,0.,0.,0.,
 0.,0.,0.,0.,0.,0.,0.,0.,0.,0.,0.,0.,0.,0.,0.,0.,0.,0.,0.,0.,0.,0.,0.,0
 .,0.,0.,0.,0.,0.,0.,0.,0.,0.,0.,0.,0.,0.,0.,0.,0.,0.,0.,0.,0.,0.,0.,0.
 ,0.,0.,0.,0.,0.,0.,0.,0.,0.,0.,0.,0.,0.,0.,0.,0.,0.,0.,0.,0.,0.,0.,0.,
 0.,0.,0.,0.,0.,0.,0.,0.,0.,0.,0.,0.,0.,0.,0.,0.,0.,0.,0.,0.,0.,0.,0.,0
 .,0.,0.,0.,0.,0.,0.,0.,0.,0.,0.,0.,0.,0.,0.,0.,0.,0.,0.,0.,0.,0.,0.,0.
 ,0.,0.,0.,0.,0.,0.,0.,0.,0.,0.,0.,0.,0.,0.,0.,0.,0.,0.,0.,0.,0.,0.,0.,
 0.,0.,0.,0.,0.,0.,0.,0.,0.,0.,0.,0.,0.,0.,0.,0.,0.,0.,0.,0.,0.,0.,0.,0
 .,0.,0.,0.,0.,0.,0.,0.,0.,0.,0.,0.,0.,0.,0.,0.,0.,0.,0.,0.,0.,0.,0.,0.
 ,0.,0.,0.,0.,0.,0.,0.,0.,0.,0.,0.,0.,0.,0.,0.,0.,0.,0.,0.,0.,0.,0.,0.,
 0.,0.,0.,0.,0.,0.,0.,0.,0.,0.,0.,0.,0.,0.,0.,0.,0.,0.,0.,0.,0.,0.,0.,0
 .,0.,0.,0.,0.,0.,0.,0.,0.,0.,0.,0.,0.,0.,0.,0.,0.,0.,0.,0.,0.,0.,0.,0.
 ,0.,0.,0.,0.,0.,0.,0.,0.,0.,0.,0.,0.,-0.00041954,-0.00002657,0.0003061
 0,0.,0.,0.,-0.00078043,-0.00028852,-0.00045571,0.,0.,0.,0.,0.,0.,0.000
 36008,0.00067963,-0.00011005,-0.00016751,-0.00019396,-0.00006467,0.,0.
 ,0.,-0.00013657,-0.00015062,0.00013294,0.,0.,0.,0.,0.,0.,0.,0.,0.,0.,0
 .,0.,0.,0.,0.,0.,0.,0.,0.,0.,0.,0.,0.,0.,0.,0.,0.,0.,0.,0.,0.,0.,0.,0.
 ,0.,0.,0.,0.,0.,0.,0.,0.,0.,0.,0.,0.,0.,0.,0.,0.,0.,0.,0.,0.,0.0000187
 3,-0.00000051,0.00003342,-0.00008832,0.00000812,0.00000833,0.00008332,
 -0.00001503,-0.00019652,0.00032064,-0.00007033,0.00058381,0.00014721,-
 0.00035078,-0.00016044,-0.00189295,-0.00091393,-0.00039235,-0.03642357
 ,-0.01846681,-0.00276617,0.00257221,-0.00126446,0.00017614,0.00000744,
 -0.00001229,0.00000807,0.00000715,0.00000592,-0.00001071,0.00002830,-0
 .00000887,0.00001336,-0.00004159,0.00002696,0.00003195,0.00000306,0.00
 001844,-0.00000789,-0.00019379,-0.00040285,0.00052054,0.00009045,0.000
 02518,-0.00015483,0.00097534,0.00018168,0.00042415,-0.00025655,-0.0018
 4510,-0.00008009,-0.00328148,-0.02482024,-0.00252056,0.,0.,0.,0.,0.,0.
 ,0.,0.,0.,0.,0.,0.,0.,0.,0.,0.,0.,0.,0.,0.,0.,0.,0.,0.,0.,0.,0.,0.,0.,
 0.,0.,0.,0.,0.,0.,0.,0.,0.,0.,0.,0.,0.,0.,0.,0.,0.,0.,0.,0.,0.,0.,0.,0
 .,0.,0.,0.,0.,0.,0.,0.,0.,0.,0.,0.,0.,0.,0.,0.,0.,0.,0.,0.,0.,0.,0.,0.
 ,0.,0.,0.,0.,0.,0.,0.,0.,0.,0.,0.,0.03860717,0.,0.,0.,0.,0.,0.,-0.0009
 5530,0.00037237,0.00049659,0.,0.,0.,-0.00169360,0.00020808,-0.00087058
 ,0.,0.,0.,0.,0.,0.,0.00261903,0.00111386,0.00013567,-0.00063330,-0.000
 39029,-0.00023644,0.,0.,0.,-0.00085323,-0.00046313,0.00048324,0.,0.,0.
 ,0.,0.,0.,0.,0.,0.,0.,0.,0.,0.,0.,0.,0.,0.,0.,0.,0.,0.,0.,0.,0.,0.,0.,
 0.,0.,0.,0.,0.,0.,0.,0.,0.,0.,0.,0.,0.,0.,0.,0.,0.,0.,0.,0.,0.,0.,0.,0
 .,0.,0.,0.,0.,0.00000197,0.00002487,0.00007248,-0.00010674,0.00004076,
 0.00004686,0.00021493,-0.00015010,-0.00049793,0.00017658,0.00067822,0.
 00086791,-0.00050336,-0.00107820,-0.00051002,-0.01502727,-0.02057573,-
 0.01050226,-0.01919347,-0.06050641,-0.00596680,0.00370992,-0.01084382,
 0.00490069,0.00002136,-0.00003132,0.00000470,0.00001608,-0.00000530,-0
 .00002942,0.00004280,-0.00002773,-0.00001086,-0.00006736,0.00011577,0.
 00010565,-0.00000952,0.00001549,-0.00000046,-0.00029644,0.00000426,0.0
 0114970,0.00022277,-0.00021706,-0.00016173,0.00054999,0.00076616,-0.00
 057070,-0.01174288,-0.01920442,0.00294066,-0.00298927,-0.01212514,-0.0
 0104868,0.,0.,0.,0.,0.,0.,0.,0.,0.,0.,0.,0.,0.,0.,0.,0.,0.,0.,0.,0.,0.
 ,0.,0.,0.,0.,0.,0.,0.,0.,0.,0.,0.,0.,0.,0.,0.,0.,0.,0.,0.,0.,0.,0.,0.,
 0.,0.,0.,0.,0.,0.,0.,0.,0.,0.,0.,0.,0.,0.,0.,0.,0.,0.,0.,0.,0.,0.,0.,0
 .,0.,0.,0.,0.,0.,0.,0.,0.,0.,0.,0.,0.,0.,0.,0.,0.,0.,0.,0.,0.04713381,
 0.11965684,0.,0.,0.,0.,0.,0.,0.00022186,0.00002782,0.00013421,0.,0.,0.
 ,-0.00032505,-0.00023412,0.00007366,0.,0.,0.,0.,0.,0.,-0.00035902,0.00
 004949,-0.00044331,0.00002642,-0.00003138,0.00006104,0.,0.,0.,0.000130
 95,0.00006870,0.00001453,0.,0.,0.,0.,0.,0.,0.,0.,0.,0.,0.,0.,0.,0.,0.,
 0.,0.,0.,0.,0.,0.,0.,0.,0.,0.,0.,0.,0.,0.,0.,0.,0.,0.,0.,0.,0.,0.,0.,0
 .,0.,0.,0.,0.,0.,0.,0.,0.,0.,0.,0.,0.,0.,0.,0.,-0.00001624,0.00001057,
 -0.00004383,0.00004877,-0.00002101,0.00002673,-0.00017014,-0.00009479,
 0.00052238,-0.00045705,0.00073833,-0.00039995,0.00159736,-0.00116217,-
 0.00148530,0.00655662,0.00841300,0.00352232,-0.00237270,-0.00582544,-0
 .02650028,-0.00034769,0.00395704,0.00004754,-0.00000785,0.00001375,-0.
 00001796,0.00000679,-0.00000084,0.00000396,-0.00000405,0.00000227,0.00
 001296,0.00002137,-0.00000958,-0.00000110,0.00005378,0.00002080,-0.000
 01983,0.00039787,0.00258927,-0.00081602,-0.00010615,0.00064474,0.00004
 292,0.00027979,-0.00023045,0.00049648,-0.00950994,-0.01455413,0.003639
 23,0.00000357,-0.00047326,0.00034009,0.,0.,0.,0.,0.,0.,0.,0.,0.,0.,0.,
 0.,0.,0.,0.,0.,0.,0.,0.,0.,0.,0.,0.,0.,0.,0.,0.,0.,0.,0.,0.,0.,0.,0.,0
 .,0.,0.,0.,0.,0.,0.,0.,0.,0.,0.,0.,0.,0.,0.,0.,0.,0.,0.,0.,0.,0.,0.,0.
 ,0.,0.,0.,0.,0.,0.,0.,0.,0.,0.,0.,0.,0.,0.,0.,0.,0.,0.,0.,0.,0.,0.,0.,
 0.,0.,0.,0.,0.,0.,0.00377489,0.00631432,0.02119152,0.,0.,0.,0.,0.,0.,0
 .00245851,-0.00150796,-0.00142507,0.,0.,0.,0.00680148,-0.00349790,0.00
 361220,0.,0.,0.,0.,0.,0.,-0.03604872,-0.00649547,0.00369336,0.00351672
 ,0.00210883,0.00148013,0.,0.,0.,0.00510173,0.00245206,-0.00350746,0.,0
 .,0.,0.,0.,0.,0.,0.,0.,0.,0.,0.,0.,0.,0.,0.,0.,0.,0.,0.,0.,0.,0.,0.,0.
 ,0.,0.,0.,0.,0.,0.,0.,0.,0.,0.,0.,0.,0.,0.,0.,0.,0.,0.,0.,0.,0.,0.,0.,
 0.,0.,0.,0.,0.,0.,-0.00009163,0.00018038,-0.00013992,0.00032852,-0.000
 01815,0.00013852,-0.00009704,0.00033188,0.00062073,-0.00082365,-0.0001
 1463,-0.00118362,-0.00398156,-0.00806184,-0.00080235,0.02417250,0.0137
 4997,-0.00850796,-0.00132246,0.00270204,-0.00271667,-0.10431437,-0.012
 12216,0.02172713,-0.00004891,0.00003780,-0.00011934,-0.00004422,-0.000
 05023,0.00004163,-0.00014860,-0.00008693,-0.00011565,-0.00004193,-0.00
 002479,0.00000183,-0.00014454,-0.00001767,0.00011050,0.00054742,-0.001
 29778,-0.00308444,-0.00089688,0.00072210,0.00157115,-0.00333295,-0.006
 82960,-0.00405144,0.00265067,-0.00160870,0.00133426,-0.00037419,0.0012
 9214,0.00079213,0.,0.,0.,0.,0.,0.,0.,0.,0.,0.,0.,0.,0.,0.,0.,0.,0.,0.,
 0.,0.,0.,0.,0.,0.,0.,0.,0.,0.,0.,0.,0.,0.,0.,0.,0.,0.,0.,0.,0.,0.,0.,0
 .,0.,0.,0.,0.,0.,0.,0.,0.,0.,0.,0.,0.,0.,0.,0.,0.,0.,0.,0.,0.,0.,0.,0.
 ,0.,0.,0.,0.,0.,0.,0.,0.,0.,0.,0.,0.,0.,0.,0.,0.,0.,0.,0.,0.,0.,0.,-0.
 00188311,-0.00490757,0.00112457,0.89724308,0.,0.,0.,0.,0.,0.,-0.003441
 06,-0.00137976,-0.00016732,0.,0.,0.,0.00448329,-0.00779778,0.00010798,
 0.,0.,0.,0.,0.,0.,-0.02219743,0.02328289,0.01610559,0.00764976,0.00260
 758,0.00182011,0.,0.,0.,0.00656453,0.00048038,-0.00654828,0.,0.,0.,0.,
 0.,0.,0.,0.,0.,0.,0.,0.,0.,0.,0.,0.,0.,0.,0.,0.,0.,0.,0.,0.,0.,0.,0.,0
 .,0.,0.,0.,0.,0.,0.,0.,0.,0.,0.,0.,0.,0.,0.,0.,0.,0.,0.,0.,0.,0.,0.,0.
 ,0.,0.,0.,0.00031927,-0.00021249,0.00038141,-0.00049510,0.00023629,-0.
 00003378,0.00176604,0.00029160,-0.00318888,-0.00050619,-0.00021501,0.0
 0446040,-0.00063096,0.00150752,-0.00137708,0.00268370,-0.04003911,-0.0
 1914680,-0.00048027,-0.00622528,-0.00052664,-0.02323666,-0.07682053,-0
 .00577285,0.00005551,-0.00014172,0.00014995,-0.00011129,0.00003066,0.0
 0001006,0.00004489,-0.00005537,-0.00006799,-0.00024459,0.00016426,0.00
 045653,-0.00040639,-0.00009717,0.00023268,0.00033398,0.00107155,0.0015
 1700,0.00093807,-0.00024476,-0.00000212,0.00155620,0.00094346,-0.00107
 128,0.00091918,-0.00132062,0.00146741,-0.00018718,0.00078555,0.0002505
 5,0.,0.,0.,0.,0.,0.,0.,0.,0.,0.,0.,0.,0.,0.,0.,0.,0.,0.,0.,0.,0.,0.,0.
 ,0.,0.,0.,0.,0.,0.,0.,0.,0.,0.,0.,0.,0.,0.,0.,0.,0.,0.,0.,0.,0.,0.,0.,
 0.,0.,0.,0.,0.,0.,0.,0.,0.,0.,0.,0.,0.,0.,0.,0.,0.,0.,0.,0.,0.,0.,0.,0
 .,0.,0.,0.,0.,0.,0.,0.,0.,0.,0.,0.,0.,0.,0.,0.,0.,0.,0.00116973,0.0052
 4322,-0.00044877,0.31520359,0.53946219,0.,0.,0.,0.,0.,0.,-0.00333702,-
 0.00020878,0.00030660,0.,0.,0.,0.00104468,-0.00302205,-0.00159026,0.,0
 .,0.,0.,0.,0.,-0.00157525,0.01411203,0.01192570,0.00303597,0.00073268,
 0.00046583,0.,0.,0.,0.00174350,-0.00087353,-0.00324907,0.,0.,0.,0.,0.,
 0.,0.,0.,0.,0.,0.,0.,0.,0.,0.,0.,0.,0.,0.,0.,0.,0.,0.,0.,0.,0.,0.,0.,0
 .,0.,0.,0.,0.,0.,0.,0.,0.,0.,0.,0.,0.,0.,0.,0.,0.,0.,0.,0.,0.,0.,0.,0.
 ,0.,0.,0.00018624,-0.00009469,0.00031842,-0.00045018,0.00015314,-0.000
 04030,0.00122451,0.00007680,-0.00259416,-0.00007165,0.00035096,0.00373
 924,0.00103123,0.00095714,-0.00094080,-0.01470843,-0.02569860,-0.01395
 782,-0.00000070,-0.00077504,0.00462512,0.01337309,-0.00661304,-0.07023
 675,0.00006903,-0.00011508,0.00012141,-0.00002395,0.00001469,-0.000046
 60,0.00008502,-0.00002872,-0.00003581,-0.00019099,0.00024123,0.0003953
 3,-0.00019609,-0.00009720,0.00010998,0.00014181,0.00101078,0.00149670,
 0.00074393,-0.00042630,-0.00045042,0.00297166,0.00269197,0.00178555,-0
 .00019498,0.00160416,-0.00021006,-0.00004595,-0.00030796,-0.00014315,0
 .,0.,0.,0.,0.,0.,0.,0.,0.,0.,0.,0.,0.,0.,0.,0.,0.,0.,0.,0.,0.,0.,0.,0.
 ,0.,0.,0.,0.,0.,0.,0.,0.,0.,0.,0.,0.,0.,0.,0.,0.,0.,0.,0.,0.,0.,0.,0.,
 0.,0.,0.,0.,0.,0.,0.,0.,0.,0.,0.,0.,0.,0.,0.,0.,0.,0.,0.,0.,0.,0.,0.,0
 .,0.,0.,0.,0.,0.,0.,0.,0.,0.,0.,0.,0.,0.,0.,0.,0.,0.00167968,0.0059891
 4,-0.00158775,-0.08488945,0.06335020,0.30426930,0.,0.,0.,0.,0.,0.,-0.0
 0017007,0.00136005,0.00102912,0.,0.,0.,-0.00919898,0.00762026,-0.00356
 409,0.,0.,0.,0.,0.,0.,-0.03755002,0.00489858,0.00826302,-0.00657681,-0
 .00328345,-0.00206274,0.,0.,0.,-0.00699273,-0.00256417,0.00655419,0.,0
 .,0.,0.,0.,0.,0.,0.,0.,0.,0.,0.,0.,0.,0.,0.,0.,0.,0.,0.,0.,0.,0.,0.,0.
 ,0.,0.,0.,0.,0.,0.,0.,0.,0.,0.,0.,0.,0.,0.,0.,0.,0.,0.,0.,0.,0.,0.,0.,
 0.,0.,0.,0.,0.,0.,-0.00008217,-0.00004088,-0.00009116,0.00008466,-0.00
 003974,-0.00007559,-0.00071789,-0.00022357,0.00090213,0.00055027,0.000
 12797,-0.00110187,0.00043294,-0.00012996,0.00062525,0.00357580,0.00129
 304,0.00201175,0.00010994,0.00008448,-0.00012080,0.02440014,0.00251615
 ,-0.00175152,0.00000261,0.00004370,0.00000624,0.00004265,0.00002053,-0
 .00000927,0.00004510,0.00005468,0.00007421,0.00009852,-0.00006330,-0.0
 0013062,0.00020042,0.00007665,-0.00011900,-0.00001740,-0.00007791,-0.0
 0014349,-0.00007716,-0.00019018,-0.00047508,0.00040762,0.00224999,0.00
 166733,-0.00108392,0.00052898,-0.00054476,0.00021531,-0.00055803,-0.00
 031807,0.,0.,0.,0.,0.,0.,0.,0.,0.,0.,0.,0.,0.,0.,0.,0.,0.,0.,0.,0.,0.,
 0.,0.,0.,0.,0.,0.,0.,0.,0.,0.,0.,0.,0.,0.,0.,0.,0.,0.,0.,0.,0.,0.,0.,0
 .,0.,0.,0.,0.,0.,0.,0.,0.,0.,0.,0.,0.,0.,0.,0.,0.,0.,0.,0.,0.,0.,0.,0.
 ,0.,0.,0.,0.,0.,0.,0.,0.,0.,0.,0.,0.,0.,0.,0.,0.,0.,0.,0.,0.00016698,-
 0.00054786,0.00001740,-0.22757469,-0.16203042,-0.04599593,0.31576698,0
 .,0.,0.,0.,0.,0.,0.00147969,0.00109264,0.00003954,0.,0.,0.,0.00223803,
 0.00186874,0.00110928,0.,0.,0.,0.,0.,0.,0.01536709,-0.01654071,-0.0079
 3200,-0.00595859,-0.00154244,-0.00175364,0.,0.,0.,-0.00548750,-0.00004
 631,0.00507100,0.,0.,0.,0.,0.,0.,0.,0.,0.,0.,0.,0.,0.,0.,0.,0.,0.,0.,0
 .,0.,0.,0.,0.,0.,0.,0.,0.,0.,0.,0.,0.,0.,0.,0.,0.,0.,0.,0.,0.,0.,0.,0.
 ,0.,0.,0.,0.,0.,0.,0.,0.,0.,0.,0.,0.,-0.00020039,0.00013217,-0.0002121
 8,0.00027960,-0.00011720,0.00000595,-0.00111409,-0.00024361,0.00175554
 ,0.00032266,0.00056809,-0.00256728,-0.00084619,-0.00420786,0.00169768,
 0.00681869,0.00886174,-0.00555161,0.00035211,0.00203111,-0.00104674,-0
 .01104060,-0.07398039,-0.05096549,-0.00002489,0.00007937,-0.00008411,0
 .00007826,-0.00001855,-0.00001790,-0.00000961,0.00003472,0.00005182,0.
 00013543,-0.00006574,-0.00020787,0.00027518,0.00005532,-0.00016431,0.0
 0026463,-0.00054104,-0.00165816,-0.00036415,0.00011564,-0.00012175,-0.
 00053712,-0.00009166,0.00050283,-0.00049128,0.00010839,-0.00013352,0.0
 0015482,-0.00046726,0.00001769,0.,0.,0.,0.,0.,0.,0.,0.,0.,0.,0.,0.,0.,
 0.,0.,0.,0.,0.,0.,0.,0.,0.,0.,0.,0.,0.,0.,0.,0.,0.,0.,0.,0.,0.,0.,0.,0
 .,0.,0.,0.,0.,0.,0.,0.,0.,0.,0.,0.,0.,0.,0.,0.,0.,0.,0.,0.,0.,0.,0.,0.
 ,0.,0.,0.,0.,0.,0.,0.,0.,0.,0.,0.,0.,0.,0.,0.,0.,0.,0.,0.,0.,0.,0.,0.,
 0.,0.,0.,0.,-0.00038843,-0.00214062,0.00039037,-0.16948097,-0.31105606
 ,-0.07865002,0.21729534,0.40433005,0.,0.,0.,0.,0.,0.,0.00107991,-0.000
 07958,0.00037513,0.,0.,0.,-0.00407722,0.00331834,0.00030266,0.,0.,0.,0
 .,0.,0.,0.01335020,-0.00565555,-0.01424572,-0.00275272,-0.00126683,0.0
 0016843,0.,0.,0.,0.00455462,0.00184016,-0.00139384,0.,0.,0.,0.,0.,0.,0
 .,0.,0.,0.,0.,0.,0.,0.,0.,0.,0.,0.,0.,0.,0.,0.,0.,0.,0.,0.,0.,0.,0.,0.
 ,0.,0.,0.,0.,0.,0.,0.,0.,0.,0.,0.,0.,0.,0.,0.,0.,0.,0.,0.,0.,0.,0.,0.,
 0.,-0.00003970,0.00000907,-0.00011808,0.00015314,-0.00005173,-0.000019
 10,-0.00041317,0.00003031,0.00079503,0.00004044,0.00007881,-0.00111449
 ,-0.00041283,-0.00171077,0.00074661,0.00605795,0.00207482,0.00107603,-
 0.00043032,0.00042378,-0.00163586,-0.01053690,-0.06329703,-0.01568789,
 -0.00003074,0.00004297,-0.00003373,-0.00000326,0.00000594,0.00003099,-
 0.00003334,0.00001551,0.00001968,0.00004617,-0.00008870,-0.00009302,0.
 00005047,0.00003812,-0.00002801,0.00012113,-0.00033822,-0.00083122,-0.
 00019454,0.00015931,0.00000767,-0.00046488,-0.00063123,-0.00008440,-0.
 00027212,-0.00025973,-0.00005316,0.00012664,-0.00013195,-0.00006900,0.
 ,0.,0.,0.,0.,0.,0.,0.,0.,0.,0.,0.,0.,0.,0.,0.,0.,0.,0.,0.,0.,0.,0.,0.,
 0.,0.,0.,0.,0.,0.,0.,0.,0.,0.,0.,0.,0.,0.,0.,0.,0.,0.,0.,0.,0.,0.,0.,0
 .,0.,0.,0.,0.,0.,0.,0.,0.,0.,0.,0.,0.,0.,0.,0.,0.,0.,0.,0.,0.,0.,0.,0.
 ,0.,0.,0.,0.,0.,0.,0.,0.,0.,0.,0.,0.,0.,0.,0.,0.,-0.00037350,-0.001918
 09,0.00053607,-0.05011725,-0.07941325,-0.11060330,0.04011830,0.1417547
 0,0.11403400,0.,0.,0.,0.,0.,0.,-0.00203788,0.00110156,0.00101137,0.,0.
 ,0.,-0.00357545,0.00225381,-0.00206467,0.,0.,0.,0.,0.,0.,0.01375240,-0
 .00153951,-0.00185707,-0.00303548,-0.00162354,-0.00121264,0.,0.,0.,-0.
 00363620,-0.00167653,0.00279252,0.,0.,0.,0.,0.,0.,0.,0.,0.,0.,0.,0.,0.
 ,0.,0.,0.,0.,0.,0.,0.,0.,0.,0.,0.,0.,0.,0.,0.,0.,0.,0.,0.,0.,0.,0.,0.,
 0.,0.,0.,0.,0.,0.,0.,0.,0.,0.,0.,0.,0.,0.,0.,0.,0.,0.,0.00005436,-0.00
 011524,0.00008782,-0.00020590,0.00002903,-0.00009790,0.00001259,-0.000
 22848,-0.00045357,0.00068337,0.00012263,0.00089120,0.00086890,0.002124
 91,-0.00010726,-0.00891503,-0.01538074,-0.00387579,0.00040055,-0.00164
 337,0.00078477,-0.05258879,0.02652358,0.04845670,0.00003329,-0.0000242
 0,0.00007747,0.00003132,0.00003418,-0.00002885,0.00010109,0.00005537,0
 .00008008,0.00001538,0.00003563,0.00003086,0.00010596,0.00003332,-0.00
 008388,0.00015285,0.00056130,0.00111239,0.00077248,-0.00038547,-0.0008
 6951,0.00165283,0.00342825,0.00173900,-0.00106901,0.00068512,-0.000263
 98,0.00023719,-0.00057081,-0.00004044,0.,0.,0.,0.,0.,0.,0.,0.,0.,0.,0.
 ,0.,0.,0.,0.,0.,0.,0.,0.,0.,0.,0.,0.,0.,0.,0.,0.,0.,0.,0.,0.,0.,0.,0.,
 0.,0.,0.,0.,0.,0.,0.,0.,0.,0.,0.,0.,0.,0.,0.,0.,0.,0.,0.,0.,0.,0.,0.,0
 .,0.,0.,0.,0.,0.,0.,0.,0.,0.,0.,0.,0.,0.,0.,0.,0.,0.,0.,0.,0.,0.,0.,0.
 ,0.,0.,0.,0.,0.,0.,0.00110770,0.00250395,-0.00057593,-0.55319186,-0.12
 386131,0.12513591,-0.06466135,-0.05218384,0.00414617,0.66746907,0.,0.,
 0.,0.,0.,0.,0.00053564,0.00058219,0.00023598,0.,0.,0.,-0.00168876,0.00
 229602,-0.00061832,0.,0.,0.,0.,0.,0.,0.00690999,-0.00537384,-0.0045698
 0,-0.00238027,-0.00086911,-0.00067814,0.,0.,0.,-0.00198037,-0.00029826
 ,0.00193973,0.,0.,0.,0.,0.,0.,0.,0.,0.,0.,0.,0.,0.,0.,0.,0.,0.,0.,0.,0
 .,0.,0.,0.,0.,0.,0.,0.,0.,0.,0.,0.,0.,0.,0.,0.,0.,0.,0.,0.,0.,0.,0.,0.
 ,0.,0.,0.,0.,0.,0.,0.,0.,0.,0.,0.,-0.00009687,0.00007942,-0.00009811,0
 .00011281,-0.00006336,0.00001455,-0.00050698,-0.00012446,0.00080065,-0
 .00001583,0.00044702,-0.00126208,0.00228572,0.00044940,0.00155154,-0.0
 0014763,-0.00078056,-0.00232284,0.00066446,0.00119787,0.00094693,0.024
 36475,0.01510697,-0.01400454,-0.00001086,0.00003554,-0.00004475,0.0000
 3819,-0.00001079,-0.00001304,-0.00000500,0.00000714,0.00001737,0.00006
 665,-0.00001840,-0.00009572,0.00012746,0.00000877,-0.00008965,-0.00012
 533,0.00000358,0.00001038,-0.00002463,-0.00027261,-0.00093884,0.003001
 06,-0.00003472,0.00069959,-0.00089984,0.00038116,-0.00117194,0.0001267
 4,-0.00077189,-0.00049265,0.,0.,0.,0.,0.,0.,0.,0.,0.,0.,0.,0.,0.,0.,0.
 ,0.,0.,0.,0.,0.,0.,0.,0.,0.,0.,0.,0.,0.,0.,0.,0.,0.,0.,0.,0.,0.,0.,0.,
 0.,0.,0.,0.,0.,0.,0.,0.,0.,0.,0.,0.,0.,0.,0.,0.,0.,0.,0.,0.,0.,0.,0.,0
 .,0.,0.,0.,0.,0.,0.,0.,0.,0.,0.,0.,0.,0.,0.,0.,0.,0.,0.,0.,0.,0.,0.,0.
 ,0.,0.,0.00004434,-0.00019439,-0.00011137,-0.12199586,-0.12839772,0.02
 603786,-0.06976186,-0.00947582,0.00474917,0.15922938,0.12552736,0.,0.,
 0.,0.,0.,0.,0.00133458,-0.00018255,-0.00025093,0.,0.,0.,0.00076841,-0.
 00009940,0.00107741,0.,0.,0.,0.,0.,0.,-0.00178159,-0.00336719,-0.00108
 546,-0.00002640,0.00020531,0.00019993,0.,0.,0.,0.00008631,0.00041943,0
 .00032585,0.,0.,0.,0.,0.,0.,0.,0.,0.,0.,0.,0.,0.,0.,0.,0.,0.,0.,0.,0.,
 0.,0.,0.,0.,0.,0.,0.,0.,0.,0.,0.,0.,0.,0.,0.,0.,0.,0.,0.,0.,0.,0.,0.,0
 .,0.,0.,0.,0.,0.,0.,0.,0.,0.,0.,-0.00003731,0.00000372,-0.00011366,0.0
 0013422,-0.00006451,0.00000322,-0.00034288,0.00000582,0.00091526,0.000
 00409,-0.00015001,-0.00099639,0.00078262,-0.00026927,0.00068597,0.0043
 8602,0.00720567,-0.00042744,0.00033919,0.00117436,-0.00171253,0.050287
 84,-0.01836119,-0.01027951,-0.00002953,0.00004247,-0.00003301,0.000001
 82,0.00000438,0.00002645,-0.00003321,0.00002888,0.00002727,0.00006971,
 -0.00009778,-0.00013992,0.00006516,0.00002094,-0.00004513,-0.00009734,
 -0.00033100,-0.00045815,-0.00025146,0.00000098,-0.00020553,0.00073318,
 0.00007358,-0.00093682,0.00060575,-0.00068705,0.00052053,-0.00010046,0
 .00003753,0.00052226,0.,0.,0.,0.,0.,0.,0.,0.,0.,0.,0.,0.,0.,0.,0.,0.,0
 .,0.,0.,0.,0.,0.,0.,0.,0.,0.,0.,0.,0.,0.,0.,0.,0.,0.,0.,0.,0.,0.,0.,0.
 ,0.,0.,0.,0.,0.,0.,0.,0.,0.,0.,0.,0.,0.,0.,0.,0.,0.,0.,0.,0.,0.,0.,0.,
 0.,0.,0.,0.,0.,0.,0.,0.,0.,0.,0.,0.,0.,0.,0.,0.,0.,0.,0.,0.,0.,0.,0.,0
 .,-0.00049346,-0.00128581,0.00055283,0.12444004,0.02783675,-0.12278302
 ,-0.00522999,-0.00158593,0.02724680,-0.17468209,-0.01051392,0.10704795
 \\0.,0.,0.,0.,0.,0.,0.,0.,0.,0.,0.,0.,0.,0.,0.,0.,0.,0.,0.,0.,0.,0.,0.
 ,0.,0.,0.,0.,0.,0.,0.,0.,0.,0.,0.,0.,0.,0.,0.,0.,0.,0.,0.,0.,0.,0.,0.,
 0.,0.,0.,0.,0.,0.,0.,0.,0.,0.,0.,0.,0.,0.,0.,0.,0.,0.,0.,0.,0.,0.,0.,0
 .,0.,0.,0.,0.,0.,0.,0.,0.,0.,0.,0.,0.,0.,0.,0.,0.,0.,-0.00000002,0.,0.
 00000002,0.00000001,0.00000002,0.,-0.00000001,0.,0.,0.00000003,0.,-0.0
 0000002,0.,0.,0.,0.,0.,0.,0.,0.00000002,0.,0.,-0.00000001,0.,0.,0.,0.0
 0000003,-0.00000001,0.00000001,0.,0.,0.00000001,0.,-0.00000002,0.00000
 005,0.,-0.00000001,0.,0.,0.,0.00000003,0.,0.,0.,0.,0.00000001,0.,0.,0.
 00000001,-0.00000001,-0.00000003,-0.00000001,0.,0.,0.,0.,0.,0.,0.,0.,0
 .,0.,0.,0.,0.,0.,0.,0.,0.,0.,0.,0.,0.,0.,0.,0.,0.,0.,0.,0.,0.,0.,0.,0.
 ,0.,0.,0.,0.,0.,0.,0.,0.,0.,0.,0.,0.,0.,0.,0.,0.,0.,0.,0.,0.,0.,0.,0.,
 0.,0.,0.,0.,0.,0.,0.,0.,0.,0.,0.,0.,0.,0.,0.,0.,0.,0.,0.,0.,0.,0.,0.,0
 .,0.,0.,0.,0.,0.,0.,0.,0.,0.,0.,0.,0.00000001,0.,0.,0.,0.,0.,0.,0.,0.,
 0.,0.\\\@
 The archive entry for this job was punched.


 LORD, MAN... WERE YE BUT WHYLES WHERE I AM, 
 THE GENTILES YE WAD NE'ER ENVY 'EM.        
 IT'S TRUE, THEY NEEDNA STARVE OR SWEAT,     
 THRO' WINTER'S CAULD OR SIMMER'S HEAT...  
 THEY'VE NAE SAIR WARK TO CRAZE THEIR BANES, 
 AND FILL AULD AGE WITH GRIPS AN' GRANES...  
                                             
 BUT HUMAN BODIES ARE SIC FOOLS              
 FOR A' THEIR COLLEGES AND SCHOOLS,           
 THAT WHEN NAE REAL ILLS PERPLEX THEM,       
 THEY MAK ENOW THEMSELVES TO VEX THEM,       
 AN' AYE THE LESS THEY HAE TO STURT THEM,    
 IN LIKE PROPORTION LESS WILL HURT THEM....  
                                             
                (ROBERT BURNS 'THE TWA DOGS')
 Job cpu time:       0 days 10 hours 25 minutes 34.8 seconds.
 Elapsed time:       0 days  0 hours 31 minutes 25.0 seconds.
 File lengths (MBytes):  RWF=   3746 Int=      0 D2E=      0 Chk=     66 Scr=      1
 Normal termination of Gaussian 16 at Thu Jul  6 17:23:37 2023.
