 Entering Gaussian System, Link 0=g16
 Input=paddle_new_opt_freq_sin.com
 Output=paddle_new_opt_freq_sin.log
 Initial command:
 /opt/ohpc/pub/apps/gaussian/avx2/g16/l1.exe "/scratch/g16-tmp/Gau-1289293.inp" -scrdir="/scratch/g16-tmp/"
 Entering Link 1 = /opt/ohpc/pub/apps/gaussian/avx2/g16/l1.exe PID=   1289294.
  
 Copyright (c) 1988-2017, Gaussian, Inc.  All Rights Reserved.
  
 This is part of the Gaussian(R) 16 program.  It is based on
 the Gaussian(R) 09 system (copyright 2009, Gaussian, Inc.),
 the Gaussian(R) 03 system (copyright 2003, Gaussian, Inc.),
 the Gaussian(R) 98 system (copyright 1998, Gaussian, Inc.),
 the Gaussian(R) 94 system (copyright 1995, Gaussian, Inc.),
 the Gaussian 92(TM) system (copyright 1992, Gaussian, Inc.),
 the Gaussian 90(TM) system (copyright 1990, Gaussian, Inc.),
 the Gaussian 88(TM) system (copyright 1988, Gaussian, Inc.),
 the Gaussian 86(TM) system (copyright 1986, Carnegie Mellon
 University), and the Gaussian 82(TM) system (copyright 1983,
 Carnegie Mellon University). Gaussian is a federally registered
 trademark of Gaussian, Inc.
  
 This software contains proprietary and confidential information,
 including trade secrets, belonging to Gaussian, Inc.
  
 This software is provided under written license and may be
 used, copied, transmitted, or stored only in accord with that
 written license.
  
 The following legend is applicable only to US Government
 contracts under FAR:
  
                    RESTRICTED RIGHTS LEGEND
  
 Use, reproduction and disclosure by the US Government is
 subject to restrictions as set forth in subparagraphs (a)
 and (c) of the Commercial Computer Software - Restricted
 Rights clause in FAR 52.227-19.
  
 Gaussian, Inc.
 340 Quinnipiac St., Bldg. 40, Wallingford CT 06492
  
  
 ---------------------------------------------------------------
 Warning -- This program may not be used in any manner that
 competes with the business of Gaussian, Inc. or will provide
 assistance to any competitor of Gaussian, Inc.  The licensee
 of this program is prohibited from giving any competitor of
 Gaussian, Inc. access to this program.  By using this program,
 the user acknowledges that Gaussian, Inc. is engaged in the
 business of creating and licensing software in the field of
 computational chemistry and represents and warrants to the
 licensee that it is not a competitor of Gaussian, Inc. and that
 it will not use this program in any manner prohibited above.
 ---------------------------------------------------------------
  

 Cite this work as:
 Gaussian 16, Revision B.01,
 M. J. Frisch, G. W. Trucks, H. B. Schlegel, G. E. Scuseria, 
 M. A. Robb, J. R. Cheeseman, G. Scalmani, V. Barone, 
 G. A. Petersson, H. Nakatsuji, X. Li, M. Caricato, A. V. Marenich, 
 J. Bloino, B. G. Janesko, R. Gomperts, B. Mennucci, H. P. Hratchian, 
 J. V. Ortiz, A. F. Izmaylov, J. L. Sonnenberg, D. Williams-Young, 
 F. Ding, F. Lipparini, F. Egidi, J. Goings, B. Peng, A. Petrone, 
 T. Henderson, D. Ranasinghe, V. G. Zakrzewski, J. Gao, N. Rega, 
 G. Zheng, W. Liang, M. Hada, M. Ehara, K. Toyota, R. Fukuda, 
 J. Hasegawa, M. Ishida, T. Nakajima, Y. Honda, O. Kitao, H. Nakai, 
 T. Vreven, K. Throssell, J. A. Montgomery, Jr., J. E. Peralta, 
 F. Ogliaro, M. J. Bearpark, J. J. Heyd, E. N. Brothers, K. N. Kudin, 
 V. N. Staroverov, T. A. Keith, R. Kobayashi, J. Normand, 
 K. Raghavachari, A. P. Rendell, J. C. Burant, S. S. Iyengar, 
 J. Tomasi, M. Cossi, J. M. Millam, M. Klene, C. Adamo, R. Cammi, 
 J. W. Ochterski, R. L. Martin, K. Morokuma, O. Farkas, 
 J. B. Foresman, and D. J. Fox, Gaussian, Inc., Wallingford CT, 2016.
 
 ******************************************
 Gaussian 16:  ES64L-G16RevB.01 20-Dec-2017
                22-May-2023 
 ******************************************
 %nprocshared=64
 Will use up to   64 processors via shared memory.
 %mem=64GB
 %chk=paddle_new_opt_freq_sin.chk
 ----------------------------------------------------------------------
 # opt=(calcall,tight,cartesian) freq b3lyp/gen nosymm scf=(qc,maxcycle
 =1024) pseudo=read
 ----------------------------------------------------------------------
 1/7=10,10=4,18=10,26=3,38=1/1,3;
 2/12=2,15=1,17=6,18=5,29=2,40=1/2;
 3/5=7,11=2,16=1,17=8,25=1,30=1,71=2,74=-5,140=1/1,2,3;
 4//1;
 5/5=2,7=1024,8=3,38=5/8;
 8/6=4,10=90,11=11/1;
 11/6=1,8=1,9=11,15=111,16=1,31=1/1,2,10;
 10/6=1,31=1/2;
 6/7=2,8=2,9=2,10=2,18=1,28=1/1;
 7/7=1,10=1,25=1,30=1/1,2,3,16;
 1/7=10,10=4,18=10,26=3/3(3);
 2/15=1,29=1/2;
 7/7=1,8=1,9=1,25=1,30=1,44=-1/16;
 99/12=1/99;
 2/15=1,29=1/2;
 3/5=7,6=1,11=2,16=1,17=8,25=1,30=1,71=2,74=-5,82=7,140=1/1,2,3;
 4/5=5,16=3,69=1/1;
 5/5=2,7=1024,8=3,38=5/8;
 8/6=4,10=90,11=11/1;
 11/6=1,8=1,9=11,15=111,16=1,31=1/1,2,10;
 10/6=1,31=1/2;
 7/7=1,10=1,25=1,30=1/1,2,3,16;
 1/7=10,10=4,18=10,26=3/3(-8);
 2/15=1,29=1/2;
 6/7=2,8=2,9=2,10=2,18=1,19=2,28=1/1;
 7/7=1,8=1,9=1,25=1,30=1,44=-1/16;
 99/12=1/99;
 -----------------------
 paddle_new_opt_freq_sin
 -----------------------
 Symbolic Z-matrix:
 Charge =  0 Multiplicity = 1
 Zn                   -1.40039  -0.00099   0.00277 
 O                    -1.68262   1.16311   1.49172 
 O                     0.55252   1.18944   1.51907 
 O                    -0.55371   1.5198   -1.18798 
 O                     1.68146   1.48955  -1.16769 
 C                    -0.56226   1.52808   1.95516 
 C                     0.56072   1.95445  -1.52963 
 Zn                    1.40042   0.00096  -0.00283 
 O                     0.5481   -1.1887   -1.52132 
 O                    -1.68694  -1.16549  -1.48505 
 O                     1.68818  -1.48722   1.1609 
 O                    -0.54684  -1.52058   1.19014 
 C                    -0.56793  -1.5289   -1.95296 
 C                     0.56954  -1.95368   1.52733 
 H                    -0.59842   2.21059   2.82786 
 H                     0.59617   2.82711  -2.21224 
 H                    -0.60663  -2.21146  -2.82551 
 H                     0.60894  -2.82627   2.2098 
 C                    -4.05911   0.96148  -0.34967 
 C                    -5.45914   0.86618  -0.24892 
 C                    -6.01344  -0.31961   0.23658 
 C                    -5.15851  -1.36105   0.6016 
 C                    -3.7713   -1.17045   0.46429 
 N                    -3.21952  -0.03312  -0.00208 
 H                    -7.10313  -0.43135   0.32856 
 H                    -3.58075   1.88215  -0.72867 
 H                    -6.09542   1.70923  -0.54687 
 H                    -5.55255  -2.30976   0.98766 
 H                    -3.0605   -1.9692    0.74185 
 

 GradGradGradGradGradGradGradGradGradGradGradGradGradGradGradGradGradGrad
 Berny optimization.
 Initialization pass.
 No Z-matrix variables, so optimization will use Cartesian coordinates.
 Trust Radius=3.00D-01 FncErr=1.00D-07 GrdErr=1.00D-06 EigMax=2.50D+02 EigMin=1.00D-04
 Number of steps in this run=     97 maximum allowed number of steps=    174.
 GradGradGradGradGradGradGradGradGradGradGradGradGradGradGradGradGradGrad

 ---------------------------------------------------------------------------------------------------
                            Z-MATRIX (ANGSTROMS AND DEGREES)
   CD    Cent   Atom    N1       Length/X        N2       Alpha/Y        N3        Beta/Z          J
 ---------------------------------------------------------------------------------------------------
      1      1  Zn       0  -1.400387         -0.000991          0.002770
      2      2  O        0  -1.682619          1.163111          1.491720
      3      3  O        0   0.552518          1.189437          1.519065
      4      4  O        0  -0.553705          1.519801         -1.187984
      5      5  O        0   1.681456          1.489549         -1.167685
      6      6  C        0  -0.562257          1.528079          1.955164
      7      7  C        0   0.560718          1.954451         -1.529630
      8      8  Zn       0   1.400422          0.000963         -0.002828
      9      9  O        0   0.548104         -1.188701         -1.521315
     10     10  O        0  -1.686940         -1.165485         -1.485048
     11     11  O        0   1.688177         -1.487221          1.160903
     12     12  O        0  -0.546843         -1.520582          1.190144
     13     13  C        0  -0.567931         -1.528895         -1.952961
     14     14  C        0   0.569544         -1.953676          1.527333
     15     15  H        0  -0.598418          2.210594          2.827862
     16     16  H        0   0.596173          2.827105         -2.212238
     17     17  H        0  -0.606625         -2.211463         -2.825508
     18     18  H        0   0.608943         -2.826269          2.209802
     19     19  C        0  -4.059114          0.961484         -0.349670
     20     20  C        0  -5.459139          0.866182         -0.248915
     21     21  C        0  -6.013435         -0.319608          0.236576
     22     22  C        0  -5.158509         -1.361053          0.601600
     23     23  C        0  -3.771296         -1.170452          0.464288
     24     24  N        0  -3.219521         -0.033117         -0.002083
     25     25  H        0  -7.103130         -0.431354          0.328559
     26     26  H        0  -3.580745          1.882151         -0.728669
     27     27  H        0  -6.095416          1.709227         -0.546867
     28     28  H        0  -5.552550         -2.309764          0.987665
     29     29  H        0  -3.060499         -1.969200          0.741849
 ---------------------------------------------------------------------------------------------------
                         Z-Matrix orientation:                         
 ---------------------------------------------------------------------
 Center     Atomic      Atomic             Coordinates (Angstroms)
 Number     Number       Type             X           Y           Z
 ---------------------------------------------------------------------
      1         30           0       -1.400387   -0.000991    0.002770
      2          8           0       -1.682619    1.163111    1.491720
      3          8           0        0.552518    1.189437    1.519065
      4          8           0       -0.553705    1.519801   -1.187984
      5          8           0        1.681456    1.489549   -1.167685
      6          6           0       -0.562257    1.528079    1.955164
      7          6           0        0.560718    1.954451   -1.529630
      8         30           0        1.400422    0.000963   -0.002828
      9          8           0        0.548104   -1.188701   -1.521315
     10          8           0       -1.686940   -1.165485   -1.485048
     11          8           0        1.688177   -1.487221    1.160903
     12          8           0       -0.546843   -1.520582    1.190144
     13          6           0       -0.567931   -1.528895   -1.952961
     14          6           0        0.569544   -1.953676    1.527333
     15          1           0       -0.598418    2.210594    2.827862
     16          1           0        0.596173    2.827105   -2.212238
     17          1           0       -0.606625   -2.211463   -2.825508
     18          1           0        0.608943   -2.826269    2.209802
     19          6           0       -4.059114    0.961484   -0.349670
     20          6           0       -5.459139    0.866182   -0.248915
     21          6           0       -6.013435   -0.319608    0.236576
     22          6           0       -5.158509   -1.361053    0.601600
     23          6           0       -3.771296   -1.170452    0.464288
     24          7           0       -3.219521   -0.033117   -0.002083
     25          1           0       -7.103130   -0.431354    0.328559
     26          1           0       -3.580745    1.882151   -0.728669
     27          1           0       -6.095416    1.709227   -0.546867
     28          1           0       -5.552550   -2.309764    0.987665
     29          1           0       -3.060499   -1.969200    0.741849
 ---------------------------------------------------------------------
                    Distance matrix (angstroms):
                    1          2          3          4          5
     1  Zn   0.000000
     2  O    1.910958   0.000000
     3  O    2.744104   2.235459   0.000000
     4  O    2.108927   2.929588   2.942955   0.000000
     5  O    3.617932   4.300697   2.929709   2.235458   0.000000
     6  C    2.617701   1.266173   1.244019   3.143171   3.845506
     7  C    3.165112   3.845430   3.143224   1.244018   1.266172
     8  Zn   2.800815   3.617928   2.108926   2.744098   1.910958
     9  O    2.744104   4.425554   3.859983   2.942971   2.929601
    10  O    1.910958   3.779355   4.425554   2.929715   4.300700
    11  O    3.617925   4.300694   2.929590   4.425549   3.779355
    12  O    2.108922   2.929700   2.942955   3.859983   4.425558
    13  C    2.617701   4.511680   4.549692   3.143237   3.845439
    14  C    3.165107   3.845500   3.143170   4.549690   4.511681
    15  H    3.676331   2.014445   2.019991   4.075072   4.656407
    16  H    4.109822   4.656294   4.075105   2.019990   2.014444
    17  H    3.676330   5.584261   5.637823   4.075122   4.656306
    18  H    4.109817   4.656399   4.075070   5.637821   5.584262
    19  C    2.849456   3.013154   4.981092   3.647242   5.822554
    20  C    4.157981   4.168943   6.274573   5.037098   7.226398
    21  C    4.629946   4.746558   6.858115   5.934766   8.028471
    22  C    4.041268   4.386973   6.321596   5.718929   7.618492
    23  C    2.683625   3.296013   5.037558   4.507810   6.282630
    24  N    1.819424   2.454481   4.246976   3.305221   5.262767
    25  H    5.728231   5.768639   7.915378   7.000134   9.115786
    26  H    2.972404   3.008327   4.755631   3.083057   5.295057
    27  H    5.026952   4.891509   6.980923   5.581888   7.804705
    28  H    4.851897   5.224107   7.056816   6.662392   8.450512
    29  H    2.678817   3.503175   4.861579   4.709714   6.172148
                    6          7          8          9         10
     6  C    0.000000
     7  C    3.686008   0.000000
     8  Zn   3.165111   2.617698   0.000000
     9  O    4.549692   3.143188   2.108921   0.000000
    10  O    4.511680   3.845511   3.617925   2.235459   0.000000
    11  O    3.845431   4.511678   1.910959   2.929705   4.300696
    12  O    3.143219   4.549694   2.744107   2.942969   2.929602
    13  C    4.961710   3.686022   3.165106   1.244019   1.266172
    14  C    3.686005   4.961709   2.617702   3.143231   3.845439
    15  H    1.108484   4.516297   4.109822   5.637824   5.584262
    16  H    4.516267   1.108484   3.676328   4.075093   4.656413
    17  H    6.069676   4.516285   4.109816   2.019990   2.014444
    18  H    4.516292   6.069676   3.676331   4.075115   4.656307
    19  C    4.226263   4.870435   5.554226   5.217518   3.382349
    20  C    5.410686   6.250059   6.918290   6.475223   4.459280
    21  C    6.006899   7.177069   7.424646   6.848307   4.732659
    22  C    5.595065   6.945809   6.726069   6.091133   4.055137
    23  C    4.450024   5.701497   5.323258   4.753963   2.853852
    24  N    3.650918   4.535861   4.620069   4.223558   2.414591
    25  H    7.019134   8.238901   8.520980   7.908033   5.758752
    26  H    4.054577   4.218825   5.373801   5.206324   3.666973
    27  H    6.075263   6.732762   7.707252   7.313269   5.345916
    28  H    6.369310   7.867169   7.393535   6.691020   4.729337
    29  H    4.465905   5.802402   4.933144   4.330486   2.737096
                   11         12         13         14         15
    11  O    0.000000
    12  O    2.235460   0.000000
    13  C    3.845505   3.143187   0.000000
    14  C    1.266172   1.244020   3.686019   0.000000
    15  H    4.656297   4.075102   6.069677   4.516266   0.000000
    16  H    5.584260   5.637825   4.516315   6.069676   5.216296
    17  H    4.656406   4.075089   1.108483   4.516310   7.177412
    18  H    2.014444   2.019991   4.516282   1.108483   5.216293
    19  C    6.427234   4.568120   4.578306   5.783232   4.861420
    20  C    7.655731   5.647848   5.706495   6.888518   5.907674
    21  C    7.844268   5.677611   5.992492   6.904481   6.514530
    22  C    6.870651   4.651806   5.256173   5.832562   6.205428
    23  C    5.512845   3.323635   4.029034   4.537223   5.204335
    24  N    5.249043   3.282859   3.615827   4.514939   4.462399
    25  H    8.893521   6.701764   7.008477   7.913561   7.452361
    26  H    6.533352   4.946210   4.712873   6.085065   4.653070
    27  H    8.585923   6.650980   6.558630   7.882947   6.469711
    28  H    7.289356   5.071579   5.839817   6.156141   6.954379
    29  H    4.791434   2.592430   3.697129   3.714087   5.280528
                   16         17         18         19         20
    16  H    0.000000
    17  H    5.216320   0.000000
    18  H    7.177412   5.216315   0.000000
    19  C    5.349897   5.302550   6.533661   0.000000
    20  C    6.660830   6.297430   7.516721   1.406878   0.000000
    21  C    7.719159   6.495312   7.350705   2.409202   1.396081
    22  C    7.653412   5.760895   6.164144   2.740030   2.402983
    23  C    6.497618   4.682051   4.997503   2.300113   2.739590
    24  N    5.255965   4.420876   5.229844   1.347205   2.426016
    25  H    8.737990   7.437842   8.291607   3.415557   2.172506
    26  H    4.532169   5.477207   6.953943   1.104584   2.188772
    27  H    6.985734   7.119750   8.550929   2.178195   1.097428
    28  H    8.627491   6.245969   6.302729   3.836649   3.409470
    29  H    6.715834   4.336615   4.044040   3.282919   3.843758
                   21         22         23         24         25
    21  C    0.000000
    22  C    1.395977   0.000000
    23  C    2.408938   1.406963   0.000000
    24  N    2.818686   2.426422   1.347401   0.000000
    25  H    1.099264   2.172657   3.415524   3.917950   0.000000
    26  H    3.420149   3.844129   3.282962   2.080062   4.344794
    27  H    2.176390   3.409309   3.836212   3.406365   2.522686
    28  H    2.176527   1.097436   2.178261   3.406721   2.523319
    29  H    3.419984   2.188871   1.104658   2.080179   4.344956
                   26         27         28         29
    26  H    0.000000
    27  H    2.527158   0.000000
    28  H    4.940239   4.336101   0.000000
    29  H    4.155236   4.939872   2.527197   0.000000
 Symmetry turned off by external request.
 Stoichiometry    C9H9NO8Zn2
 Framework group  C1[X(C9H9NO8Zn2)]
 Deg. of freedom    81
 Full point group                 C1      NOp   1
 Rotational constants (GHZ):           0.5622099           0.2195625           0.2117781
 General basis read from cards:  (5D, 7F)
 ======================================================================================================
                                       Pseudopotential Parameters
 ======================================================================================================
  Center     Atomic      Valence      Angular      Power
  Number     Number     Electrons     Momentum     of R      Exponent        Coefficient   SO-Coeffient
 ======================================================================================================
    1         30           12
                                      F and up 
                                                     1      386.7379660      -18.00000000    0.00000000
                                                     2       72.8587359     -124.35274030    0.00000000
                                                     2       15.9066170      -30.66018220    0.00000000
                                                     2        4.3502340      -10.63589890    0.00000000
                                                     2        1.2842199       -0.76836230    0.00000000
                                      S - F
                                                     0       19.0867858        3.00000000    0.00000000
                                                     1        5.0231080       22.52342250    0.00000000
                                                     2        1.2701744       48.44659420    0.00000000
                                                     2        1.0671287      -44.55601190    0.00000000
                                                     2        0.9264190       12.99839580    0.00000000
                                      P - F
                                                     0       43.4927750        5.00000000    0.00000000
                                                     1       20.8692669       20.74355890    0.00000000
                                                     2       21.7118378       90.30271580    0.00000000
                                                     2        6.3616915       74.66103160    0.00000000
                                                     2        1.2291195        9.88944240    0.00000000
                                      D - F
                                                     2       13.5851800       -4.84903590    0.00000000
                                                     2        9.8373050        3.69133790    0.00000000
                                                     2        0.8373113       -0.50373190    0.00000000
    2          8
                                   No pseudopotential on this center.
    3          8
                                   No pseudopotential on this center.
    4          8
                                   No pseudopotential on this center.
    5          8
                                   No pseudopotential on this center.
    6          6
                                   No pseudopotential on this center.
    7          6
                                   No pseudopotential on this center.
    8         30           12
                                      F and up 
                                                     1      386.7379660      -18.00000000    0.00000000
                                                     2       72.8587359     -124.35274030    0.00000000
                                                     2       15.9066170      -30.66018220    0.00000000
                                                     2        4.3502340      -10.63589890    0.00000000
                                                     2        1.2842199       -0.76836230    0.00000000
                                      S - F
                                                     0       19.0867858        3.00000000    0.00000000
                                                     1        5.0231080       22.52342250    0.00000000
                                                     2        1.2701744       48.44659420    0.00000000
                                                     2        1.0671287      -44.55601190    0.00000000
                                                     2        0.9264190       12.99839580    0.00000000
                                      P - F
                                                     0       43.4927750        5.00000000    0.00000000
                                                     1       20.8692669       20.74355890    0.00000000
                                                     2       21.7118378       90.30271580    0.00000000
                                                     2        6.3616915       74.66103160    0.00000000
                                                     2        1.2291195        9.88944240    0.00000000
                                      D - F
                                                     2       13.5851800       -4.84903590    0.00000000
                                                     2        9.8373050        3.69133790    0.00000000
                                                     2        0.8373113       -0.50373190    0.00000000
    9          8
                                   No pseudopotential on this center.
   10          8
                                   No pseudopotential on this center.
   11          8
                                   No pseudopotential on this center.
   12          8
                                   No pseudopotential on this center.
   13          6
                                   No pseudopotential on this center.
   14          6
                                   No pseudopotential on this center.
   15          1
                                   No pseudopotential on this center.
   16          1
                                   No pseudopotential on this center.
   17          1
                                   No pseudopotential on this center.
   18          1
                                   No pseudopotential on this center.
   19          6
                                   No pseudopotential on this center.
   20          6
                                   No pseudopotential on this center.
   21          6
                                   No pseudopotential on this center.
   22          6
                                   No pseudopotential on this center.
   23          6
                                   No pseudopotential on this center.
   24          7
                                   No pseudopotential on this center.
   25          1
                                   No pseudopotential on this center.
   26          1
                                   No pseudopotential on this center.
   27          1
                                   No pseudopotential on this center.
   28          1
                                   No pseudopotential on this center.
   29          1
                                   No pseudopotential on this center.
 ======================================================================================================
   405 basis functions,   717 primitive gaussians,   427 cartesian basis functions
    79 alpha electrons       79 beta electrons
       nuclear repulsion energy      1943.9611719205 Hartrees.
 NAtoms=   29 NActive=   29 NUniq=   29 SFac= 1.00D+00 NAtFMM=   60 NAOKFM=F Big=F
 Integral buffers will be    131072 words long.
 Raffenetti 2 integral format.
 Two-electron integral symmetry is turned off.
 One-electron integrals computed using PRISM.
   1 Symmetry operations used in ECPInt.
 ECPInt:  NShTT=    8385 NPrTT=   39986 LenC2=    7726 LenP2D=   23703.
 LDataN:  DoStor=T MaxTD1= 5 Len=  102
 NBasis=   405 RedAO= T EigKep=  6.08D-06  NBF=   405
 NBsUse=   405 1.00D-06 EigRej= -1.00D+00 NBFU=   405
 ExpMin= 3.51D-02 ExpMax= 5.48D+03 ExpMxC= 8.25D+02 IAcc=3 IRadAn=         5 AccDes= 0.00D+00
 Harris functional with IExCor=  402 and IRadAn=       5 diagonalized for initial guess.
 HarFok:  IExCor=  402 AccDes= 0.00D+00 IRadAn=         5 IDoV= 1 UseB2=F ITyADJ=14
 ICtDFT=  3500011 ScaDFX=  1.000000  1.000000  1.000000  1.000000
 FoFCou: FMM=F IPFlag=           0 FMFlag=      100000 FMFlg1=           0
         NFxFlg=           0 DoJE=T BraDBF=F KetDBF=T FulRan=T
         wScrn=  0.000000 ICntrl=       500 IOpCl=  0 I1Cent=   200000004 NGrid=           0
         NMat0=    1 NMatS0=      1 NMatT0=    0 NMatD0=    1 NMtDS0=    0 NMtDT0=    0
 Symmetry not used in FoFCou.
 Gradient too large for Newton-Raphson -- use scaled steepest descent instead.
     Accept linear search using points  2 and  3.
 Gradient too large for Newton-Raphson -- use scaled steepest descent instead.
     Accept linear search using points  2 and  3.
 Gradient too large for Newton-Raphson -- use scaled steepest descent instead.
 Gradient too large for Newton-Raphson -- use scaled steepest descent instead.
     Accept linear search using points  1 and  2.
 Gradient too large for Newton-Raphson -- use scaled steepest descent instead.
     Minimum is close to point  3 DX= -1.09D-03 DF= -5.75D-10 DXR=  1.22D-03 DFR=  1.48D-06 which will be used.
 LinEq1:  Iter=  0 NonCon=     1 RMS=4.90D-05 Max=2.38D-03 NDo=     1
 AX will form     1 AO Fock derivatives at one time.
 LinEq1:  Iter=  1 NonCon=     1 RMS=3.89D-05 Max=1.17D-03 NDo=     1
 LinEq1:  Iter=  2 NonCon=     1 RMS=2.34D-05 Max=8.66D-04 NDo=     1
 LinEq1:  Iter=  3 NonCon=     1 RMS=9.03D-06 Max=1.59D-04 NDo=     1
 LinEq1:  Iter=  4 NonCon=     1 RMS=4.00D-06 Max=1.43D-04 NDo=     1
 LinEq1:  Iter=  5 NonCon=     1 RMS=3.27D-06 Max=8.10D-05 NDo=     1
 LinEq1:  Iter=  6 NonCon=     1 RMS=1.26D-06 Max=4.39D-05 NDo=     1
 LinEq1:  Iter=  7 NonCon=     1 RMS=6.99D-07 Max=4.86D-05 NDo=     1
 LinEq1:  Iter=  8 NonCon=     1 RMS=5.12D-07 Max=1.82D-05 NDo=     1
 LinEq1:  Iter=  9 NonCon=     1 RMS=2.27D-07 Max=1.06D-05 NDo=     1
 LinEq1:  Iter= 10 NonCon=     1 RMS=1.60D-07 Max=6.44D-06 NDo=     1
 LinEq1:  Iter= 11 NonCon=     1 RMS=9.71D-08 Max=5.88D-06 NDo=     1
 LinEq1:  Iter= 12 NonCon=     1 RMS=5.70D-08 Max=2.21D-06 NDo=     1
 LinEq1:  Iter= 13 NonCon=     1 RMS=4.45D-08 Max=1.64D-06 NDo=     1
 LinEq1:  Iter= 14 NonCon=     1 RMS=2.84D-08 Max=1.85D-06 NDo=     1
 LinEq1:  Iter= 15 NonCon=     1 RMS=1.53D-08 Max=4.35D-07 NDo=     1
 LinEq1:  Iter= 16 NonCon=     1 RMS=9.78D-09 Max=3.90D-07 NDo=     1
 LinEq1:  Iter= 17 NonCon=     0 RMS=3.86D-09 Max=1.34D-07 NDo=     1
 Linear equations converged to 2.270D-08 2.270D-07 after    17 iterations.
     Accept linear search using points  1 and  2.
     Minimum is close to point  2 DX= -1.73D-04 DF= -6.82D-13 DXR=  1.73D-04 DFR=  2.70D-08 which will be used.
 LinEq1:  Iter=  0 NonCon=     1 RMS=4.56D-08 Max=2.13D-06 NDo=     1
 LinEq1:  Iter=  1 NonCon=     1 RMS=3.09D-08 Max=7.31D-07 NDo=     1
 LinEq1:  Iter=  2 NonCon=     1 RMS=1.43D-08 Max=7.06D-07 NDo=     1
 LinEq1:  Iter=  3 NonCon=     1 RMS=9.05D-09 Max=3.39D-07 NDo=     1
 LinEq1:  Iter=  4 NonCon=     1 RMS=7.62D-09 Max=3.70D-07 NDo=     1
 LinEq1:  Iter=  5 NonCon=     1 RMS=4.52D-09 Max=2.05D-07 NDo=     1
 LinEq1:  Iter=  6 NonCon=     1 RMS=2.01D-09 Max=3.23D-08 NDo=     1
 LinEq1:  Iter=  7 NonCon=     1 RMS=7.75D-10 Max=2.00D-08 NDo=     1
 LinEq1:  Iter=  8 NonCon=     1 RMS=6.20D-10 Max=1.95D-08 NDo=     1
 LinEq1:  Iter=  9 NonCon=     1 RMS=3.77D-10 Max=8.66D-09 NDo=     1
 LinEq1:  Iter= 10 NonCon=     1 RMS=2.34D-10 Max=7.77D-09 NDo=     1
 LinEq1:  Iter= 11 NonCon=     1 RMS=1.25D-10 Max=7.50D-09 NDo=     1
 LinEq1:  Iter= 12 NonCon=     1 RMS=7.57D-11 Max=2.56D-09 NDo=     1
 LinEq1:  Iter= 13 NonCon=     1 RMS=4.09D-11 Max=3.08D-09 NDo=     1
 LinEq1:  Iter= 14 NonCon=     1 RMS=3.04D-11 Max=1.06D-09 NDo=     1
 LinEq1:  Iter= 15 NonCon=     1 RMS=2.04D-11 Max=6.26D-10 NDo=     1
 LinEq1:  Iter= 16 NonCon=     1 RMS=1.73D-11 Max=6.99D-10 NDo=     1
 LinEq1:  Iter= 17 NonCon=     0 RMS=1.44D-11 Max=3.73D-10 NDo=     1
 Linear equations converged to 4.614D-11 4.614D-10 after    17 iterations.
 SCF Done:  E(RB3LYP) =  -1136.34207848     a.u. after    8 cycles
            Convg  =    0.2112D-09                    51 Fock formations.
              S**2 =  0.0000                  -V/T =  1.9246
 DoSCS=F DFT=T ScalE2(SS,OS)=  1.000000  1.000000
 Range of M.O.s used for correlation:     1   405
 NBasis=   405 NAE=    79 NBE=    79 NFC=     0 NFV=     0
 NROrb=    405 NOA=    79 NOB=    79 NVA=   326 NVB=   326

 **** Warning!!: The largest alpha MO coefficient is  0.77554167D+02

   1 Symmetry operations used in ECPInt.
 ECPInt:  NShTT=    8385 NPrTT=   39986 LenC2=    7726 LenP2D=   23703.
 LDataN:  DoStor=T MaxTD1= 6 Len=  172
 Number of processors reduced to  31 by ecpmxn.
 Symmetrizing basis deriv contribution to polar:
 IMax=3 JMax=2 DiffMx= 0.00D+00
 G2DrvN: will do    30 centers at a time, making    1 passes.
 Calling FoFCou, ICntrl=  3107 FMM=F I1Cent=   0 AccDes= 0.00D+00.
 End of G2Drv F.D. properties file   721 does not exist.
 End of G2Drv F.D. properties file   722 does not exist.
 End of G2Drv F.D. properties file   788 does not exist.
          IDoAtm=11111111111111111111111111111
          Differentiating once with respect to electric field.
                with respect to dipole field.
          Differentiating once with respect to nuclear coordinates.
 CalDSu exits because no D1Ps are significant.
          There are    90 degrees of freedom in the 1st order CPHF.  IDoFFX=6 NUNeed=     3.
     87 vectors produced by pass  0 Test12= 2.86D-14 1.11D-09 XBig12= 2.02D+02 5.90D+00.
 AX will form    87 AO Fock derivatives at one time.
     87 vectors produced by pass  1 Test12= 2.86D-14 1.11D-09 XBig12= 6.94D+01 1.57D+00.
     87 vectors produced by pass  2 Test12= 2.86D-14 1.11D-09 XBig12= 4.82D-01 9.68D-02.
     87 vectors produced by pass  3 Test12= 2.86D-14 1.11D-09 XBig12= 2.83D-03 5.03D-03.
     87 vectors produced by pass  4 Test12= 2.86D-14 1.11D-09 XBig12= 7.25D-06 2.59D-04.
     87 vectors produced by pass  5 Test12= 2.86D-14 1.11D-09 XBig12= 9.80D-09 8.66D-06.
     32 vectors produced by pass  6 Test12= 2.86D-14 1.11D-09 XBig12= 1.07D-11 2.77D-07.
      3 vectors produced by pass  7 Test12= 2.86D-14 1.11D-09 XBig12= 1.29D-14 1.16D-08.
 InvSVY:  IOpt=1 It=  1 EMax= 1.01D-14
 Solved reduced A of dimension   557 with    90 vectors.
 Isotropic polarizability for W=    0.000000      162.32 Bohr**3.
 End of Minotr F.D. properties file   721 does not exist.
 End of Minotr F.D. properties file   722 does not exist.
 End of Minotr F.D. properties file   788 does not exist.

 **********************************************************************

            Population analysis using the SCF Density.

 **********************************************************************

 Alpha  occ. eigenvalues --  -19.16076 -19.15888 -19.15732 -19.15439 -19.14895
 Alpha  occ. eigenvalues --  -19.14877 -19.13685 -19.13658 -14.37148 -10.32272
 Alpha  occ. eigenvalues --  -10.32020 -10.30875 -10.30874 -10.25679 -10.25544
 Alpha  occ. eigenvalues --  -10.23654 -10.22742 -10.22707  -1.09978  -1.09473
 Alpha  occ. eigenvalues --   -1.08355  -1.08325  -1.00823  -1.00443  -0.99707
 Alpha  occ. eigenvalues --   -0.99263  -0.98219  -0.83691  -0.78932  -0.66761
 Alpha  occ. eigenvalues --   -0.66177  -0.65834  -0.63924  -0.63859  -0.63636
 Alpha  occ. eigenvalues --   -0.62826  -0.62563  -0.61731  -0.61567  -0.61198
 Alpha  occ. eigenvalues --   -0.60932  -0.59410  -0.58602  -0.58576  -0.56372
 Alpha  occ. eigenvalues --   -0.55311  -0.51429  -0.51120  -0.50214  -0.50016
 Alpha  occ. eigenvalues --   -0.49352  -0.49340  -0.48803  -0.48145  -0.47509
 Alpha  occ. eigenvalues --   -0.45760  -0.45463  -0.45227  -0.44364  -0.43393
 Alpha  occ. eigenvalues --   -0.42877  -0.41871  -0.41739  -0.39187  -0.37235
 Alpha  occ. eigenvalues --   -0.32880  -0.32478  -0.32413  -0.31901  -0.31742
 Alpha  occ. eigenvalues --   -0.31103  -0.30682  -0.30467  -0.30084  -0.30012
 Alpha  occ. eigenvalues --   -0.29290  -0.29213  -0.28651  -0.26868
 Alpha virt. eigenvalues --   -0.06445  -0.04601  -0.00986  -0.00674  -0.00641
 Alpha virt. eigenvalues --   -0.00406   0.00355   0.01117   0.01267   0.01522
 Alpha virt. eigenvalues --    0.02275   0.02512   0.03081   0.03355   0.04783
 Alpha virt. eigenvalues --    0.04871   0.05128   0.05536   0.06631   0.06940
 Alpha virt. eigenvalues --    0.07339   0.07460   0.08089   0.08673   0.08814
 Alpha virt. eigenvalues --    0.09120   0.09482   0.10007   0.10460   0.10854
 Alpha virt. eigenvalues --    0.10887   0.11762   0.12601   0.12933   0.13132
 Alpha virt. eigenvalues --    0.13955   0.14711   0.15059   0.15394   0.15520
 Alpha virt. eigenvalues --    0.15964   0.16351   0.16974   0.17626   0.18619
 Alpha virt. eigenvalues --    0.19030   0.19489   0.19607   0.19897   0.20102
 Alpha virt. eigenvalues --    0.21113   0.21268   0.22221   0.22516   0.22713
 Alpha virt. eigenvalues --    0.23241   0.23537   0.23895   0.24588   0.25269
 Alpha virt. eigenvalues --    0.25677   0.26400   0.26585   0.26839   0.27205
 Alpha virt. eigenvalues --    0.27916   0.28415   0.28717   0.29039   0.29704
 Alpha virt. eigenvalues --    0.30068   0.30277   0.31004   0.31511   0.31710
 Alpha virt. eigenvalues --    0.31920   0.32203   0.32441   0.32887   0.33424
 Alpha virt. eigenvalues --    0.33866   0.34113   0.34640   0.35784   0.36001
 Alpha virt. eigenvalues --    0.36210   0.36593   0.36911   0.37099   0.37759
 Alpha virt. eigenvalues --    0.38090   0.38388   0.39270   0.39654   0.40510
 Alpha virt. eigenvalues --    0.40856   0.41194   0.42151   0.43106   0.43882
 Alpha virt. eigenvalues --    0.44670   0.45465   0.45657   0.46236   0.47547
 Alpha virt. eigenvalues --    0.49720   0.51182   0.51360   0.51479   0.52439
 Alpha virt. eigenvalues --    0.52650   0.53215   0.55479   0.55662   0.56767
 Alpha virt. eigenvalues --    0.60146   0.67122   0.69324   0.69679   0.70074
 Alpha virt. eigenvalues --    0.71238   0.72095   0.72947   0.74011   0.75415
 Alpha virt. eigenvalues --    0.76439   0.77682   0.80148   0.82243   0.83350
 Alpha virt. eigenvalues --    0.84840   0.85655   0.86316   0.86607   0.87118
 Alpha virt. eigenvalues --    0.88250   0.89391   0.89795   0.90071   0.90836
 Alpha virt. eigenvalues --    0.91570   0.92412   0.95205   0.96572   0.98653
 Alpha virt. eigenvalues --    0.99006   1.01606   1.01956   1.02778   1.04688
 Alpha virt. eigenvalues --    1.05273   1.08204   1.10861   1.11573   1.13037
 Alpha virt. eigenvalues --    1.13573   1.14904   1.15524   1.17393   1.18602
 Alpha virt. eigenvalues --    1.19441   1.20525   1.22460   1.23665   1.23840
 Alpha virt. eigenvalues --    1.24611   1.25369   1.25760   1.25936   1.27324
 Alpha virt. eigenvalues --    1.28109   1.28284   1.29046   1.30388   1.31608
 Alpha virt. eigenvalues --    1.31676   1.32863   1.34313   1.35532   1.36200
 Alpha virt. eigenvalues --    1.36978   1.37041   1.37696   1.38692   1.39299
 Alpha virt. eigenvalues --    1.39615   1.41763   1.42746   1.42914   1.43815
 Alpha virt. eigenvalues --    1.45795   1.46367   1.47318   1.48153   1.49505
 Alpha virt. eigenvalues --    1.49903   1.50222   1.51511   1.52800   1.55145
 Alpha virt. eigenvalues --    1.55847   1.58932   1.59546   1.60487   1.61036
 Alpha virt. eigenvalues --    1.61307   1.63263   1.66167   1.66586   1.67448
 Alpha virt. eigenvalues --    1.69365   1.72378   1.73938   1.76797   1.77475
 Alpha virt. eigenvalues --    1.78162   1.79079   1.80129   1.80892   1.81500
 Alpha virt. eigenvalues --    1.81642   1.83356   1.83418   1.84157   1.86840
 Alpha virt. eigenvalues --    1.88184   1.88845   1.90657   1.91526   1.92328
 Alpha virt. eigenvalues --    1.92904   1.93250   1.94445   1.95088   1.95489
 Alpha virt. eigenvalues --    1.96023   1.96555   1.97099   1.97416   1.97475
 Alpha virt. eigenvalues --    1.98381   1.98441   2.00254   2.02458   2.02763
 Alpha virt. eigenvalues --    2.04566   2.07931   2.08809   2.12510   2.13629
 Alpha virt. eigenvalues --    2.14133   2.19725   2.20505   2.22914   2.24188
 Alpha virt. eigenvalues --    2.24479   2.24582   2.24946   2.26256   2.26403
 Alpha virt. eigenvalues --    2.26630   2.26949   2.27882   2.28821   2.29834
 Alpha virt. eigenvalues --    2.32696   2.34258   2.34677   2.34946   2.37070
 Alpha virt. eigenvalues --    2.38091   2.38866   2.43765   2.45310   2.49811
 Alpha virt. eigenvalues --    2.50568   2.52751   2.54216   2.55116   2.56044
 Alpha virt. eigenvalues --    2.56592   2.57597   2.58341   2.61218   2.64264
 Alpha virt. eigenvalues --    2.66175   2.67806   2.68076   2.68477   2.69443
 Alpha virt. eigenvalues --    2.70209   2.71722   2.74223   2.76753   2.80552
 Alpha virt. eigenvalues --    2.80935   2.82099   2.83135   2.84433   2.96290
 Alpha virt. eigenvalues --    2.97831   2.98824   3.01116   3.03343   3.03797
 Alpha virt. eigenvalues --    3.03882   3.04687   3.05393   3.06015   3.10608
 Alpha virt. eigenvalues --    3.12598   3.13134   3.14881   3.22078   3.22930
 Alpha virt. eigenvalues --    3.23738   3.26706   3.38492   3.48321   3.49636
 Alpha virt. eigenvalues --    3.49728   3.51441   3.51981   3.86815   9.89668
 Alpha virt. eigenvalues --   11.84080
          Condensed to atoms (all electrons):
               1          2          3          4          5          6
     1  Zn  13.175386   0.189104  -0.093339  -0.001233  -0.013333  -0.311800
     2  O    0.189104   8.525626  -0.164502  -0.028260   0.003746   0.262246
     3  O   -0.093339  -0.164502   8.428001   0.004148  -0.012886   0.262875
     4  O   -0.001233  -0.028260   0.004148   8.481795  -0.172334   0.023681
     5  O   -0.013333   0.003746  -0.012886  -0.172334   8.313492   0.003646
     6  C   -0.311800   0.262246   0.262875   0.023681   0.003646   5.039082
     7  C   -0.184548   0.005773   0.023661   0.283431   0.310450  -0.003657
     8  Zn   0.142237  -0.057194   0.062984  -0.036272   0.110835  -0.065799
     9  O   -0.107479   0.007045  -0.010785   0.000138  -0.012864   0.021748
    10  O    0.155661   0.005193   0.007353  -0.027845   0.003630  -0.009450
    11  O   -0.008949   0.003382  -0.012585   0.003663   0.008709   0.011248
    12  O   -0.035293  -0.032460   0.000040   0.003828   0.003581   0.003223
    13  C   -0.313530  -0.011130   0.023855   0.013931   0.010890  -0.072159
    14  C   -0.205729   0.001176   0.020648   0.000423  -0.005002  -0.035910
    15  H    0.046616  -0.120071  -0.081244  -0.003104  -0.000428   0.431517
    16  H   -0.004729  -0.000536  -0.001881  -0.100609  -0.088559   0.002767
    17  H    0.047638   0.000156  -0.000107  -0.002977  -0.000472   0.000452
    18  H   -0.005512  -0.000709  -0.001789  -0.000095   0.000153   0.000677
    19  C   -0.012201  -0.001924   0.001330   0.031230   0.000058  -0.007817
    20  C   -0.168459   0.030229   0.008324  -0.000051  -0.002080   0.046987
    21  C   -0.118603  -0.004726  -0.000065   0.000131   0.000304  -0.009353
    22  C   -0.120457   0.017547  -0.000298   0.000345  -0.000467  -0.047027
    23  C   -0.114641  -0.018293  -0.010275  -0.067533   0.002444  -0.001066
    24  N   -0.464217  -0.156079   0.010665   0.064442  -0.004715  -0.011852
    25  H   -0.000610  -0.000015  -0.000000  -0.000001   0.000000   0.000000
    26  H    0.030855   0.003265  -0.000060  -0.000085   0.000001   0.001519
    27  H    0.002229  -0.000024   0.000000   0.000020   0.000000  -0.000003
    28  H    0.002811  -0.000030   0.000000   0.000004   0.000000  -0.000037
    29  H    0.047297   0.000815   0.000038   0.000008  -0.000007  -0.000422
               7          8          9         10         11         12
     1  Zn  -0.184548   0.142237  -0.107479   0.155661  -0.008949  -0.035293
     2  O    0.005773  -0.057194   0.007045   0.005193   0.003382  -0.032460
     3  O    0.023661   0.062984  -0.010785   0.007353  -0.012585   0.000040
     4  O    0.283431  -0.036272   0.000138  -0.027845   0.003663   0.003828
     5  O    0.310450   0.110835  -0.012864   0.003630   0.008709   0.003581
     6  C   -0.003657  -0.065799   0.021748  -0.009450   0.011248   0.003223
     7  C    4.730612  -0.073394   0.020595   0.001387  -0.004236  -0.000451
     8  Zn  -0.073394  10.942295   0.064185  -0.057064   0.111504  -0.037543
     9  O    0.020595   0.064185   8.428176  -0.167312  -0.012019   0.005134
    10  O    0.001387  -0.057064  -0.167312   8.559123   0.003378  -0.029160
    11  O   -0.004236   0.111504  -0.012019   0.003378   8.307932  -0.175288
    12  O   -0.000451  -0.037543   0.005134  -0.029160  -0.175288   8.501687
    13  C   -0.035020  -0.068387   0.262585   0.271762   0.003477   0.020183
    14  C    0.003666  -0.071610   0.021212   0.005300   0.311102   0.288730
    15  H   -0.002092   0.004944  -0.000109   0.000155  -0.000491  -0.003051
    16  H    0.454017   0.016140  -0.001845  -0.000674   0.000152  -0.000109
    17  H   -0.001227   0.005088  -0.080774  -0.121008  -0.000441  -0.003132
    18  H   -0.000755   0.015938  -0.001814  -0.000528  -0.087004  -0.103661
    19  C    0.002660   0.016981  -0.011276  -0.003306   0.003436  -0.050914
    20  C    0.017803   0.004092  -0.002076   0.002301   0.000658  -0.007804
    21  C   -0.000148   0.002509  -0.000617   0.002469   0.000108   0.001185
    22  C   -0.000303   0.018876   0.021427  -0.004771  -0.001868  -0.014717
    23  C   -0.022480   0.034294   0.007606   0.009425  -0.003290   0.053585
    24  N    0.004509   0.008500   0.012893  -0.144928  -0.005414   0.078876
    25  H   -0.000000  -0.000001  -0.000000  -0.000009   0.000000   0.000001
    26  H   -0.001632   0.000135   0.000046   0.000937  -0.000003   0.000012
    27  H    0.000025   0.000007   0.000000  -0.000053   0.000000   0.000003
    28  H    0.000006   0.000006   0.000001   0.000032   0.000000   0.000096
    29  H    0.000306   0.000124  -0.000292   0.002504  -0.000044  -0.003941
              13         14         15         16         17         18
     1  Zn  -0.313530  -0.205729   0.046616  -0.004729   0.047638  -0.005512
     2  O   -0.011130   0.001176  -0.120071  -0.000536   0.000156  -0.000709
     3  O    0.023855   0.020648  -0.081244  -0.001881  -0.000107  -0.001789
     4  O    0.013931   0.000423  -0.003104  -0.100609  -0.002977  -0.000095
     5  O    0.010890  -0.005002  -0.000428  -0.088559  -0.000472   0.000153
     6  C   -0.072159  -0.035910   0.431517   0.002767   0.000452   0.000677
     7  C   -0.035020   0.003666  -0.002092   0.454017  -0.001227  -0.000755
     8  Zn  -0.068387  -0.071610   0.004944   0.016140   0.005088   0.015938
     9  O    0.262585   0.021212  -0.000109  -0.001845  -0.080774  -0.001814
    10  O    0.271762   0.005300   0.000155  -0.000674  -0.121008  -0.000528
    11  O    0.003477   0.311102  -0.000491   0.000152  -0.000441  -0.087004
    12  O    0.020183   0.288730  -0.003051  -0.000109  -0.003132  -0.103661
    13  C    4.998969  -0.000205   0.000413   0.000961   0.430987   0.002284
    14  C   -0.000205   4.722897  -0.001347  -0.000797  -0.002255   0.456101
    15  H    0.000413  -0.001347   0.630826  -0.000006   0.000000  -0.000006
    16  H    0.000961  -0.000797  -0.000006   0.611940  -0.000006  -0.000000
    17  H    0.430987  -0.002255   0.000000  -0.000006   0.631046  -0.000006
    18  H    0.002284   0.456101  -0.000006  -0.000000  -0.000006   0.611396
    19  C    0.031861  -0.017674  -0.001369   0.004202   0.000601  -0.001013
    20  C   -0.049194  -0.010902   0.000911   0.000205  -0.000252  -0.000171
    21  C    0.008180   0.002896   0.000033   0.000026  -0.000102   0.000135
    22  C   -0.030512   0.012172  -0.000684  -0.000065   0.001492   0.000466
    23  C    0.022955   0.015512   0.000918  -0.001197  -0.002240   0.004421
    24  N   -0.009504   0.012867  -0.003909  -0.000852  -0.003921  -0.000675
    25  H   -0.000008  -0.000001  -0.000000  -0.000000  -0.000000   0.000000
    26  H    0.000058   0.000251   0.000012  -0.000009   0.000001  -0.000000
    27  H    0.000022   0.000006   0.000000  -0.000000   0.000000  -0.000000
    28  H    0.000139   0.000088   0.000000  -0.000000   0.000000  -0.000000
    29  H    0.003183  -0.000757   0.000002  -0.000000   0.000027  -0.000055
              19         20         21         22         23         24
     1  Zn  -0.012201  -0.168459  -0.118603  -0.120457  -0.114641  -0.464217
     2  O   -0.001924   0.030229  -0.004726   0.017547  -0.018293  -0.156079
     3  O    0.001330   0.008324  -0.000065  -0.000298  -0.010275   0.010665
     4  O    0.031230  -0.000051   0.000131   0.000345  -0.067533   0.064442
     5  O    0.000058  -0.002080   0.000304  -0.000467   0.002444  -0.004715
     6  C   -0.007817   0.046987  -0.009353  -0.047027  -0.001066  -0.011852
     7  C    0.002660   0.017803  -0.000148  -0.000303  -0.022480   0.004509
     8  Zn   0.016981   0.004092   0.002509   0.018876   0.034294   0.008500
     9  O   -0.011276  -0.002076  -0.000617   0.021427   0.007606   0.012893
    10  O   -0.003306   0.002301   0.002469  -0.004771   0.009425  -0.144928
    11  O    0.003436   0.000658   0.000108  -0.001868  -0.003290  -0.005414
    12  O   -0.050914  -0.007804   0.001185  -0.014717   0.053585   0.078876
    13  C    0.031861  -0.049194   0.008180  -0.030512   0.022955  -0.009504
    14  C   -0.017674  -0.010902   0.002896   0.012172   0.015512   0.012867
    15  H   -0.001369   0.000911   0.000033  -0.000684   0.000918  -0.003909
    16  H    0.004202   0.000205   0.000026  -0.000065  -0.001197  -0.000852
    17  H    0.000601  -0.000252  -0.000102   0.001492  -0.002240  -0.003921
    18  H   -0.001013  -0.000171   0.000135   0.000466   0.004421  -0.000675
    19  C    9.800978  -2.809621  -0.331070   0.961101  -1.979953   0.187649
    20  C   -2.809621   8.421984   0.506379  -0.541698   0.304715  -0.018386
    21  C   -0.331070   0.506379   5.855860   0.575840  -0.218164  -0.121425
    22  C    0.961101  -0.541698   0.575840  10.277374  -5.313588  -0.028641
    23  C   -1.979953   0.304715  -0.218164  -5.313588  12.960947   0.146788
    24  N    0.187649  -0.018386  -0.121425  -0.028641   0.146788   7.429456
    25  H   -0.008985   0.018537   0.268404   0.016989   0.013385   0.003088
    26  H    0.431358  -0.134153   0.017525  -0.010716   0.016033  -0.053791
    27  H    0.048714   0.238503   0.020578  -0.002355   0.006136   0.001814
    28  H    0.005041   0.002506   0.019185   0.257250   0.022990   0.004875
    29  H    0.008021  -0.005230   0.016783  -0.103687   0.405075  -0.069795
              25         26         27         28         29
     1  Zn  -0.000610   0.030855   0.002229   0.002811   0.047297
     2  O   -0.000015   0.003265  -0.000024  -0.000030   0.000815
     3  O   -0.000000  -0.000060   0.000000   0.000000   0.000038
     4  O   -0.000001  -0.000085   0.000020   0.000004   0.000008
     5  O    0.000000   0.000001   0.000000   0.000000  -0.000007
     6  C    0.000000   0.001519  -0.000003  -0.000037  -0.000422
     7  C   -0.000000  -0.001632   0.000025   0.000006   0.000306
     8  Zn  -0.000001   0.000135   0.000007   0.000006   0.000124
     9  O   -0.000000   0.000046   0.000000   0.000001  -0.000292
    10  O   -0.000009   0.000937  -0.000053   0.000032   0.002504
    11  O    0.000000  -0.000003   0.000000   0.000000  -0.000044
    12  O    0.000001   0.000012   0.000003   0.000096  -0.003941
    13  C   -0.000008   0.000058   0.000022   0.000139   0.003183
    14  C   -0.000001   0.000251   0.000006   0.000088  -0.000757
    15  H   -0.000000   0.000012   0.000000   0.000000   0.000002
    16  H   -0.000000  -0.000009  -0.000000  -0.000000  -0.000000
    17  H   -0.000000   0.000001   0.000000   0.000000   0.000027
    18  H    0.000000  -0.000000  -0.000000  -0.000000  -0.000055
    19  C   -0.008985   0.431358   0.048714   0.005041   0.008021
    20  C    0.018537  -0.134153   0.238503   0.002506  -0.005230
    21  C    0.268404   0.017525   0.020578   0.019185   0.016783
    22  C    0.016989  -0.010716  -0.002355   0.257250  -0.103687
    23  C    0.013385   0.016033   0.006136   0.022990   0.405075
    24  N    0.003088  -0.053791   0.001814   0.004875  -0.069795
    25  H    0.554455  -0.000141  -0.005259  -0.005275  -0.000140
    26  H   -0.000141   0.546570  -0.003120   0.000016  -0.000168
    27  H   -0.005259  -0.003120   0.548691  -0.000121   0.000015
    28  H   -0.005275   0.000016  -0.000121   0.549086  -0.003271
    29  H   -0.000140  -0.000168   0.000015  -0.003271   0.537055
 Mulliken charges:
               1
     1  Zn   0.444828
     2  O   -0.459348
     3  O   -0.464107
     4  O   -0.470820
     5  O   -0.458791
     6  C    0.464684
     7  C    0.471043
     8  Zn   0.905590
     9  O   -0.463528
    10  O   -0.464501
    11  O   -0.457117
    12  O   -0.462642
    13  C    0.482954
    14  C    0.477143
    15  H    0.101564
    16  H    0.111464
    17  H    0.101430
    18  H    0.112223
    19  C   -0.298098
    20  C    0.145942
    21  C   -0.494259
    22  C    0.060974
    23  C   -0.274510
    24  N    0.131682
    25  H    0.145586
    26  H    0.155285
    27  H    0.144171
    28  H    0.144602
    29  H    0.166557
 Sum of Mulliken charges =   0.00000
 Mulliken charges with hydrogens summed into heavy atoms:
               1
     1  Zn   0.444828
     2  O   -0.459348
     3  O   -0.464107
     4  O   -0.470820
     5  O   -0.458791
     6  C    0.566248
     7  C    0.582507
     8  Zn   0.905590
     9  O   -0.463528
    10  O   -0.464501
    11  O   -0.457117
    12  O   -0.462642
    13  C    0.584384
    14  C    0.589365
    19  C   -0.142813
    20  C    0.290113
    21  C   -0.348673
    22  C    0.205576
    23  C   -0.107954
    24  N    0.131682
 APT charges:
               1
     1  Zn   1.529694
     2  O   -0.955249
     3  O   -0.973302
     4  O   -0.952678
     5  O   -0.902586
     6  C    1.167844
     7  C    1.124067
     8  Zn   1.478022
     9  O   -0.978173
    10  O   -0.959998
    11  O   -0.908482
    12  O   -0.967419
    13  C    1.175781
    14  C    1.138317
    15  H   -0.048845
    16  H   -0.025489
    17  H   -0.049214
    18  H   -0.024407
    19  C    0.200094
    20  C   -0.114050
    21  C    0.111967
    22  C   -0.110488
    23  C    0.179615
    24  N   -0.410926
    25  H    0.041030
    26  H    0.058781
    27  H    0.047958
    28  H    0.048643
    29  H    0.079495
 Sum of APT charges =   0.00000
 APT charges with hydrogens summed into heavy atoms:
               1
     1  Zn   1.529694
     2  O   -0.955249
     3  O   -0.973302
     4  O   -0.952678
     5  O   -0.902586
     6  C    1.118999
     7  C    1.098578
     8  Zn   1.478022
     9  O   -0.978173
    10  O   -0.959998
    11  O   -0.908482
    12  O   -0.967419
    13  C    1.126567
    14  C    1.113909
    19  C    0.258874
    20  C   -0.066092
    21  C    0.152997
    22  C   -0.061845
    23  C    0.259110
    24  N   -0.410926
 Electronic spatial extent (au):  <R**2>=           5947.8941
 Charge=              0.0000 electrons
 Dipole moment (field-independent basis, Debye):
    X=             -4.9175    Y=             -0.3373    Z=              0.2426  Tot=              4.9350
 Quadrupole moment (field-independent basis, Debye-Ang):
   XX=            -96.2517   YY=           -116.2324   ZZ=           -124.3295
   XY=              1.0714   XZ=             -1.1480   YZ=             -4.6991
 Traceless Quadrupole moment (field-independent basis, Debye-Ang):
   XX=             16.0195   YY=             -3.9612   ZZ=            -12.0583
   XY=              1.0714   XZ=             -1.1480   YZ=             -4.6991
 Octapole moment (field-independent basis, Debye-Ang**2):
  XXX=            267.5791  YYY=             15.9186  ZZZ=            -13.3646  XYY=            135.3484
  XXY=              1.2748  XXZ=              3.4525  XZZ=            170.4557  YZZ=              5.8532
  YYZ=             -2.3082  XYZ=             16.5532
 Hexadecapole moment (field-independent basis, Debye-Ang**3):
 XXXX=          -4136.5574 YYYY=          -1219.6377 ZZZZ=          -1075.4281 XXXY=            -57.4034
 XXXZ=             10.7031 YYYX=            -73.4685 YYYZ=              4.7849 ZZZX=             67.4169
 ZZZY=             50.2290 XXYY=          -1080.6702 XXZZ=          -1221.3444 YYZZ=           -348.8639
 XXYZ=            -64.1473 YYXZ=             12.8322 ZZXY=            -26.1734
 N-N= 1.943961171921D+03 E-N=-6.715232572235D+03  KE= 1.228999919332D+03
  Exact polarizability: 203.560   0.471 154.042  -2.170 -11.587 129.360
 Approx polarizability: 309.001  -0.986 228.978  -2.884 -24.854 177.123
   1 Symmetry operations used in ECPInt.
 ECPInt:  NShTT=    8385 NPrTT=   39986 LenC2=    7726 LenP2D=   23703.
 LDataN:  DoStor=T MaxTD1= 7 Len=  274
 Calling FoFJK, ICntrl=    100127 FMM=F ISym2X=0 I1Cent= 0 IOpClX= 0 NMat=1 NMatS=1 NMatT=0.
 -------------------------------------------------------------------
 Center     Atomic                   Forces (Hartrees/Bohr)
 Number     Number              X              Y              Z
 -------------------------------------------------------------------
      1       30           0.066592099    0.006625392   -0.002464407
      2        8           0.012292758    0.026114057    0.032882031
      3        8           0.020745564   -0.002944103   -0.003498494
      4        8          -0.010801835    0.001857410   -0.001089685
      5        8           0.016253077    0.009364157   -0.007417922
      6        6          -0.018911504    0.014085699    0.017925895
      7        6           0.002422628    0.014237155   -0.011120324
      8       30           0.000796643    0.000520494   -0.000345844
      9        8           0.020744372    0.002664522    0.003659390
     10        8           0.014929049   -0.027965339   -0.034276985
     11        8           0.015182398   -0.009849978    0.007784524
     12        8          -0.011773489   -0.001951584    0.000897705
     13        6          -0.018756140   -0.014112794   -0.018365234
     14        6           0.004475654   -0.014361755    0.011191807
     15        1           0.002933691   -0.001620317   -0.002039567
     16        1          -0.000201453   -0.003092464    0.002407179
     17        1           0.003000966    0.001713950    0.001883373
     18        1          -0.000245211    0.003115117   -0.002412492
     19        6          -0.002995097    0.010517474   -0.003778189
     20        6           0.006278998    0.004344709   -0.002655860
     21        6          -0.006899124   -0.000742659    0.000508039
     22        6           0.007415098   -0.002992372    0.001203296
     23        6          -0.006348104   -0.012320635    0.004780628
     24        7          -0.122186435   -0.003563228    0.004278795
     25        1           0.008513440    0.000913497   -0.000655129
     26        1          -0.005267430   -0.009521440    0.004595154
     27        1           0.006118643   -0.005957990    0.001833575
     28        1           0.004359495    0.007022543   -0.002783358
     29        1          -0.008668754    0.007900483   -0.002927900
 -------------------------------------------------------------------
 Cartesian Forces:  Max     0.122186435 RMS     0.018274038

 GradGradGradGradGradGradGradGradGradGradGradGradGradGradGradGradGradGrad
 Berny optimization.
 Search for a local minimum.
 Step number   1 out of a maximum of   97
 All quantities printed in internal units (Hartrees-Bohrs-Radians)
 Second derivative matrix not updated -- analytic derivatives used.
 ITU=  0
     Eigenvalues ---   -0.00662  -0.00447  -0.00334  -0.00007   0.00055
     Eigenvalues ---    0.00059   0.00181   0.00266   0.00269   0.00463
     Eigenvalues ---    0.00567   0.00576   0.00733   0.00840   0.00898
     Eigenvalues ---    0.01233   0.01264   0.01524   0.01744   0.02406
     Eigenvalues ---    0.02409   0.02559   0.02785   0.03180   0.03961
     Eigenvalues ---    0.04355   0.05343   0.05475   0.05648   0.05787
     Eigenvalues ---    0.06522   0.06633   0.06720   0.08096   0.08851
     Eigenvalues ---    0.10464   0.10752   0.11143   0.15312   0.15808
     Eigenvalues ---    0.17309   0.18282   0.18854   0.19480   0.19754
     Eigenvalues ---    0.21664   0.21938   0.21998   0.22243   0.25957
     Eigenvalues ---    0.26705   0.27074   0.27219   0.27910   0.28401
     Eigenvalues ---    0.31122   0.37177   0.41363   0.44021   0.44280
     Eigenvalues ---    0.56384   0.56466   0.56863   0.57258   0.61412
     Eigenvalues ---    0.66156   0.75449   0.93121   0.97169   1.04626
     Eigenvalues ---    1.08603   1.21749   1.21852   1.22459   1.23168
     Eigenvalues ---    1.24396   1.26315   1.44232   1.45619   1.46534
     Eigenvalues ---    1.56992
 RFO step:  Lambda=-5.50349476D-02 EMin=-6.61853575D-03
 Linear search not attempted -- first point.
 Maximum step size (   0.300) exceeded in Quadratic search.
    -- Step size scaled by   0.284
 B after Tr=     0.000618    0.004460   -0.003501
         Rot=    1.000000    0.000081   -0.000084    0.000022 Ang=   0.01 deg.
 Variable       Old X    -DE/DX   Delta X   Delta X   Delta X     New X
                                 (Linear)    (Quad)   (Total)
    X1       -2.64635   0.06659   0.00000   0.00940   0.01001  -2.63634
    Y1       -0.00187   0.00663   0.00000   0.06864   0.07320   0.07133
    Z1        0.00523  -0.00246   0.00000  -0.06464  -0.06771  -0.06248
    X2       -3.17969   0.01229   0.00000   0.02493   0.02612  -3.15357
    Y2        2.19796   0.02611   0.00000   0.11146   0.11651   2.31447
    Z2        2.81894   0.03288   0.00000  -0.03748  -0.04083   2.77811
    X3        1.04411   0.02075   0.00000   0.02891   0.03011   1.07422
    Y3        2.24771  -0.00294   0.00000  -0.01146  -0.00658   2.24113
    Z3        2.87062  -0.00350   0.00000   0.03317   0.02913   2.89974
    X4       -1.04635  -0.01080   0.00000   0.02496   0.02532  -1.02103
    Y4        2.87201   0.00186   0.00000   0.03956   0.04370   2.91571
    Z4       -2.24496  -0.00109   0.00000  -0.04057  -0.04437  -2.28933
    X5        3.17749   0.01625   0.00000   0.03629   0.03666   3.21416
    Y5        2.81484   0.00936   0.00000   0.00730   0.01126   2.82610
    Z5       -2.20660  -0.00742   0.00000   0.01524   0.01074  -2.19586
    X6       -1.06251  -0.01891   0.00000   0.02335   0.02472  -1.03779
    Y6        2.88765   0.01409   0.00000   0.03932   0.04442   2.93207
    Z6        3.69472   0.01793   0.00000   0.00753   0.00373   3.69846
    X7        1.05960   0.00242   0.00000   0.04752   0.04782   1.10742
    Y7        3.69338   0.01424   0.00000   0.02202   0.02596   3.71934
    Z7       -2.89058  -0.01112   0.00000  -0.01019  -0.01448  -2.90506
    X8        2.64641   0.00080   0.00000   0.00540   0.00602   2.65244
    Y8        0.00182   0.00052   0.00000  -0.01341  -0.00907  -0.00725
    Z8       -0.00534  -0.00035   0.00000   0.02083   0.01689   0.01154
    X9        1.03577   0.02074   0.00000   0.00632   0.00636   1.04213
    Y9       -2.24632   0.00266   0.00000  -0.00252   0.00143  -2.24489
    Z9       -2.87487   0.00366   0.00000  -0.00281  -0.00612  -2.88099
   X10       -3.18785   0.01493   0.00000   0.00219   0.00223  -3.18562
   Y10       -2.20245  -0.02797   0.00000   0.00749   0.01163  -2.19082
   Z10       -2.80633  -0.03428   0.00000  -0.07031  -0.07292  -2.87925
   X11        3.19019   0.01518   0.00000  -0.01287  -0.01201   3.17818
   Y11       -2.81044  -0.00985   0.00000  -0.05020  -0.04553  -2.85597
   Z11        2.19379   0.00778   0.00000   0.01632   0.01275   2.20654
   X12       -1.03338  -0.01177   0.00000  -0.02552  -0.02466  -1.05804
   Y12       -2.87348  -0.00195   0.00000   0.03025   0.03512  -2.83837
   Z12        2.24905   0.00090   0.00000  -0.01488  -0.01774   2.23130
   X13       -1.07323  -0.01876   0.00000   0.00847   0.00833  -1.06490
   Y13       -2.88919  -0.01411   0.00000  -0.01052  -0.00662  -2.89581
   Z13       -3.69056  -0.01837   0.00000  -0.02977  -0.03262  -3.72318
   X14        1.07628   0.00448   0.00000  -0.03931  -0.03838   1.03791
   Y14       -3.69191  -0.01436   0.00000  -0.01118  -0.00630  -3.69821
   Z14        2.88624   0.01119   0.00000   0.00015  -0.00293   2.88331
   X15       -1.13085   0.00293   0.00000   0.02689   0.02859  -1.10225
   Y15        4.17742  -0.00162   0.00000   0.00954   0.01492   4.19234
   Z15        5.34388  -0.00204   0.00000   0.02234   0.01834   5.36223
   X16        1.12660  -0.00020   0.00000   0.06830   0.06846   1.19506
   Y16        5.34245  -0.00309   0.00000   0.01816   0.02189   5.36434
   Z16       -4.18052   0.00241   0.00000  -0.00382  -0.00839  -4.18892
   X17       -1.14636   0.00300   0.00000   0.02484   0.02438  -1.12197
   Y17       -4.17906   0.00171   0.00000  -0.02835  -0.02471  -4.20377
   Z17       -5.33944   0.00188   0.00000  -0.00759  -0.01022  -5.34966
   X18        1.15074  -0.00025   0.00000  -0.07272  -0.07164   1.07909
   Y18       -5.34087   0.00312   0.00000  -0.00919  -0.00410  -5.34498
   Z18        4.17592  -0.00241   0.00000  -0.00413  -0.00694   4.16898
   X19       -7.67061  -0.00300   0.00000  -0.02064  -0.02004  -7.69066
   Y19        1.81694   0.01052   0.00000  -0.02669  -0.02199   1.79495
   Z19       -0.66078  -0.00378   0.00000   0.03585   0.03334  -0.62744
   X20      -10.31628   0.00628   0.00000  -0.01052  -0.00991 -10.32619
   Y20        1.63685   0.00434   0.00000  -0.02484  -0.02000   1.61685
   Z20       -0.47038  -0.00266   0.00000   0.01460   0.01256  -0.45782
   X21      -11.36375  -0.00690   0.00000  -0.01226  -0.01160 -11.37534
   Y21       -0.60397  -0.00074   0.00000  -0.02820  -0.02316  -0.62713
   Z21        0.44706   0.00051   0.00000   0.00739   0.00590   0.45296
   X22       -9.74817   0.00742   0.00000  -0.02372  -0.02303  -9.77119
   Y22       -2.57202  -0.00299   0.00000  -0.03534  -0.03026  -2.60228
   Z22        1.13686   0.00120   0.00000   0.01596   0.01452   1.15138
   X23       -7.12672  -0.00635   0.00000  -0.03038  -0.02971  -7.15643
   Y23       -2.21183  -0.01232   0.00000  -0.04596  -0.04103  -2.25287
   Z23        0.87738   0.00478   0.00000   0.03815   0.03621   0.91359
   X24       -6.08401  -0.12219   0.00000  -0.05511  -0.05449  -6.13850
   Y24       -0.06258  -0.00356   0.00000  -0.04072  -0.03599  -0.09857
   Z24       -0.00394   0.00428   0.00000   0.05691   0.05446   0.05052
   X25      -13.42297   0.00851   0.00000  -0.00566  -0.00497 -13.42794
   Y25       -0.81514   0.00091   0.00000  -0.02446  -0.01931  -0.83445
   Z25        0.62089  -0.00066   0.00000  -0.00411  -0.00523   0.61566
   X26       -6.76663  -0.00527   0.00000  -0.00387  -0.00332  -6.76995
   Y26        3.55675  -0.00952   0.00000  -0.04002  -0.03548   3.52127
   Z26       -1.37699   0.00460   0.00000   0.04566   0.04272  -1.33426
   X27      -11.51867   0.00612   0.00000   0.00207   0.00266 -11.51601
   Y27        3.22997  -0.00596   0.00000  -0.02669  -0.02189   3.20809
   Z27       -1.03343   0.00183   0.00000   0.00857   0.00647  -1.02695
   X28      -10.49280   0.00436   0.00000  -0.02445  -0.02371 -10.51651
   Y28       -4.36482   0.00702   0.00000  -0.03009  -0.02486  -4.38968
   Z28        1.86642  -0.00278   0.00000   0.00489   0.00386   1.87028
   X29       -5.78351  -0.00867   0.00000  -0.02102  -0.02033  -5.80384
   Y29       -3.72125   0.00790   0.00000  -0.02811  -0.02316  -3.74441
   Z29        1.40189  -0.00293   0.00000   0.03080   0.02888   1.43077
         Item               Value     Threshold  Converged?
 Maximum Force            0.122186     0.000015     NO 
 RMS     Force            0.018274     0.000010     NO 
 Maximum Displacement     0.116509     0.000060     NO 
 RMS     Displacement     0.031999     0.000040     NO 
 Predicted change in Energy=-1.474335D-02
 GradGradGradGradGradGradGradGradGradGradGradGradGradGradGradGradGradGrad

                          Input orientation:                          
 ---------------------------------------------------------------------
 Center     Atomic      Atomic             Coordinates (Angstroms)
 Number     Number       Type             X           Y           Z
 ---------------------------------------------------------------------
      1         30           0       -1.395089    0.037746   -0.033061
      2          8           0       -1.668799    1.224765    1.470113
      3          8           0        0.568453    1.185955    1.534478
      4          8           0       -0.540306    1.542925   -1.211463
      5          8           0        1.700858    1.495508   -1.162000
      6          6           0       -0.549177    1.551586    1.957139
      7          6           0        0.586021    1.968188   -1.537291
      8         30           0        1.403609   -0.003835    0.006108
      9          8           0        0.551471   -1.187947   -1.524554
     10          8           0       -1.685760   -1.159332   -1.523636
     11          8           0        1.681822   -1.511312    1.167652
     12          8           0       -0.559890   -1.501999    1.180754
     13          6           0       -0.563522   -1.532398   -1.970224
     14          6           0        0.549236   -1.957009    1.525784
     15          1           0       -0.583287    2.218489    2.837568
     16          1           0        0.632398    2.838686   -2.216679
     17          1           0       -0.593724   -2.224540   -2.830919
     18          1           0        0.571032   -2.828439    2.206128
     19          6           0       -4.069721    0.949846   -0.332025
     20          6           0       -5.464383    0.855600   -0.242267
     21          6           0       -6.019571   -0.331864    0.239697
     22          6           0       -5.170693   -1.377067    0.609284
     23          6           0       -3.787019   -1.192165    0.483451
     24          7           0       -3.248357   -0.052159    0.026734
     25          1           0       -7.105761   -0.441572    0.325794
     26          1           0       -3.582503    1.863378   -0.706061
     27          1           0       -6.094009    1.697646   -0.543441
     28          1           0       -5.565098   -2.322920    0.989707
     29          1           0       -3.071257   -1.981458    0.757129
 ---------------------------------------------------------------------
                    Distance matrix (angstroms):
                    1          2          3          4          5
     1  Zn   0.000000
     2  O    1.934803   0.000000
     3  O    2.762437   2.238514   0.000000
     4  O    2.094003   2.926699   2.982778   0.000000
     5  O    3.603396   4.284379   2.940945   2.242211   0.000000
     6  C    2.639730   1.263946   1.249570   3.168626   3.846404
     7  C    3.148668   3.831627   3.169852   1.247247   1.267727
     8  Zn   2.799281   3.618351   2.109266   2.766541   1.923763
     9  O    2.741526   4.440586   3.872128   2.957645   2.941677
    10  O    1.933727   3.827106   4.464741   2.951560   4.318349
    11  O    3.648105   4.336388   2.940986   4.463900   3.803762
    12  O    2.131130   2.957811   2.936558   3.872292   4.425441
    13  C    2.628585   4.545273   4.577527   3.167628   3.866375
    14  C    3.192091   3.878977   3.143035   4.574840   4.524411
    15  H    3.695290   2.008919   2.022541   4.105226   4.662248
    16  H    4.089518   4.636020   4.099609   2.016108   2.014468
    17  H    3.686208   5.617149   5.660284   4.101132   4.678584
    18  H    4.134564   4.689033   4.070194   5.658959   5.596188
    19  C    2.841648   3.014582   5.005221   3.685366   5.855440
    20  C    4.155937   4.180309   6.297703   5.065401   7.252315
    21  C    4.647241   4.781866   6.883480   5.970180   8.056617
    22  C    4.082829   4.446776   6.353178   5.769052   7.655544
    23  C    2.738758   3.361831   5.072499   4.571060   6.328340
    24  N    1.856411   2.491762   4.286520   3.378012   5.320065
    25  H    5.741977   5.800578   7.937464   7.028982   9.139056
    26  H    2.927566   2.967461   4.765433   3.100497   5.315742
    27  H    5.009551   4.884721   6.997712   5.595874   7.821983
    28  H    4.899773   5.291314   7.087272   6.711068   8.485538
    29  H    2.740644   3.571429   4.887154   4.764698   6.208497
                    6          7          8          9         10
     6  C    0.000000
     7  C    3.697738   0.000000
     8  Zn   3.168474   2.634275   0.000000
     9  O    4.564937   3.156349   2.114518   0.000000
    10  O    4.555951   3.865560   3.635862   2.237414   0.000000
    11  O    3.870658   4.541411   1.923298   2.937726   4.325220
    12  O    3.150757   4.554456   2.734889   2.941504   2.949361
    13  C    4.993530   3.709849   3.179936   1.249190   1.264136
    14  C    3.701731   4.979051   2.618064   3.145795   3.863995
    15  H    1.105024   4.535341   4.111404   5.649742   5.625408
    16  H    4.524765   1.105209   3.689915   4.086485   4.673148
    17  H    6.098082   4.543592   4.119415   2.023013   2.009029
    18  H    4.527857   6.084492   3.675821   4.075486   4.667994
    19  C    4.242239   4.915853   5.566074   5.229502   3.398799
    20  C    5.429644   6.286678   6.926012   6.481577   4.469883
    21  C    6.035081   7.216770   7.434096   6.857409   4.751417
    22  C    5.634904   6.995589   6.743222   6.110008   4.091640
    23  C    4.492610   5.761484   5.346270   4.780648   2.905987
    24  N    3.685652   4.607649   4.652263   4.258544   2.463978
    25  H    7.044343   8.272940   8.526617   7.912905   5.771653
    26  H    4.048570   4.251884   5.371683   5.202908   3.660988
    27  H    6.084356   6.758973   7.707873   7.311061   5.343759
    28  H    6.411489   7.914264   7.410027   6.709850   4.766560
    29  H    4.503700   5.851474   4.949693   4.354296   2.792380
                   11         12         13         14         15
    11  O    0.000000
    12  O    2.241770   0.000000
    13  C    3.858533   3.151127   0.000000
    14  C    1.268722   1.247494   3.693318   0.000000
    15  H    4.672339   4.072788   6.097902   4.520859   0.000000
    16  H    5.610478   5.639650   4.538429   6.083719   5.235260
    17  H    4.655681   4.076362   1.104883   4.512071   7.202246
    18  H    2.011743   2.022331   4.517616   1.105773   5.215616
    19  C    6.433240   4.540810   4.597680   5.765069   4.879651
    20  C    7.658877   5.624705   5.718987   6.870254   5.930257
    21  C    7.846251   5.662413   6.007788   6.887986   6.542662
    22  C    6.876537   4.647762   5.282426   5.821847   6.239998
    23  C    5.520707   3.316110   4.065368   4.524881   5.238161
    24  N    5.266639   3.265218   3.658865   4.505254   4.489902
    25  H    8.892395   6.686097   7.018725   7.895284   7.478476
    26  H    6.527821   4.901226   4.716317   6.053739   4.656040
    27  H    8.584218   6.620954   6.561644   7.859446   6.486182
    28  H    7.294397   5.075679   5.865312   6.148687   6.989809
    29  H    4.793885   2.591583   3.732138   3.701270   5.306391
                   16         17         18         19         20
    16  H    0.000000
    17  H    5.245657   0.000000
    18  H    7.188971   5.205112   0.000000
    19  C    5.406437   5.329517   6.500327   0.000000
    20  C    6.708329   6.317571   7.482849   1.400722   0.000000
    21  C    7.767552   6.515422   7.316816   2.402408   1.396637
    22  C    7.709378   5.788079   6.133825   2.740935   2.407529
    23  C    6.562751   4.716776   4.963630   2.309358   2.744733
    24  N    5.333868   4.464582   5.200502   1.344382   2.409805
    25  H    8.780852   7.453217   8.256267   3.403867   2.167826
    26  H    4.582421   5.491711   6.909837   1.100829   2.184535
    27  H    7.024688   7.132266   8.512834   2.168327   1.093698
    28  H    8.679403   6.270680   6.275932   3.833291   3.410409
    29  H    6.767155   4.367075   4.010393   3.282641   3.843793
                   21         22         23         24         25
    21  C    0.000000
    22  C    1.396294   0.000000
    23  C    2.404958   1.401634   0.000000
    24  N    2.793424   2.406267   1.341030   0.000000
    25  H    1.095106   2.167949   3.406215   3.888528   0.000000
    26  H    3.413627   3.840958   3.285286   2.077962   4.334843
    27  H    2.176639   3.411032   3.837671   3.388901   2.521004
    28  H    2.175629   1.093121   2.167133   3.383927   2.520693
    29  H    3.417814   2.189698   1.100090   2.070516   4.339876
                   26         27         28         29
    26  H    0.000000
    27  H    2.522216   0.000000
    28  H    4.932686   4.335347   0.000000
    29  H    4.145487   4.936022   2.527831   0.000000
 Symmetry turned off by external request.
 Stoichiometry    C9H9NO8Zn2
 Framework group  C1[X(C9H9NO8Zn2)]
 Deg. of freedom    81
 Full point group                 C1      NOp   1
 Rotational constants (GHZ):           0.5559515           0.2181998           0.2104664
 Basis read from rwf:  (5D, 7F)
 Pseudo-potential data read from rwf file.
   405 basis functions,   717 primitive gaussians,   427 cartesian basis functions
    79 alpha electrons       79 beta electrons
       nuclear repulsion energy      1936.7568727458 Hartrees.
 NAtoms=   29 NActive=   29 NUniq=   29 SFac= 1.00D+00 NAtFMM=   60 NAOKFM=F Big=F
 Integral buffers will be    131072 words long.
 Raffenetti 2 integral format.
 Two-electron integral symmetry is turned off.
 One-electron integrals computed using PRISM.
   1 Symmetry operations used in ECPInt.
 ECPInt:  NShTT=    8385 NPrTT=   39986 LenC2=    7724 LenP2D=   23658.
 LDataN:  DoStor=T MaxTD1= 5 Len=  102
 NBasis=   405 RedAO= T EigKep=  6.31D-06  NBF=   405
 NBsUse=   405 1.00D-06 EigRej= -1.00D+00 NBFU=   405
 Initial guess from the checkpoint file:  "paddle_new_opt_freq_sin.chk"
 B after Tr=     0.002713    0.010967   -0.008119
         Rot=    1.000000    0.000156    0.000273    0.000396 Ang=   0.06 deg.
 ExpMin= 3.51D-02 ExpMax= 5.48D+03 ExpMxC= 8.25D+02 IAcc=3 IRadAn=         5 AccDes= 0.00D+00
 Harris functional with IExCor=  402 and IRadAn=       5 diagonalized for initial guess.
 HarFok:  IExCor=  402 AccDes= 0.00D+00 IRadAn=         5 IDoV= 1 UseB2=F ITyADJ=14
 ICtDFT=  3500011 ScaDFX=  1.000000  1.000000  1.000000  1.000000
 FoFCou: FMM=F IPFlag=           0 FMFlag=      100000 FMFlg1=           0
         NFxFlg=           0 DoJE=T BraDBF=F KetDBF=T FulRan=T
         wScrn=  0.000000 ICntrl=       500 IOpCl=  0 I1Cent=   200000004 NGrid=           0
         NMat0=    1 NMatS0=      1 NMatT0=    0 NMatD0=    1 NMtDS0=    0 NMtDT0=    0
 Symmetry not used in FoFCou.
 Gradient too large for Newton-Raphson -- use scaled steepest descent instead.
     Minimum is close to point  2 DX=  3.06D-02 DF= -1.33D-05 DXR=  9.25D-02 DFR=  8.64D-03 which will be used.
 Gradient too large for Newton-Raphson -- use scaled steepest descent instead.
     Minimum is close to point  2 DX=  2.10D-02 DF= -3.61D-06 DXR=  6.55D-02 DFR=  4.31D-03 which will be used.
 Gradient too large for Newton-Raphson -- use scaled steepest descent instead.
     Minimum is close to point  2 DX=  9.65D-03 DF= -4.95D-07 DXR=  3.11D-02 DFR=  9.71D-04 which will be used.
 Gradient too large for Newton-Raphson -- use scaled steepest descent instead.
     Minimum is close to point  2 DX= -1.70D-03 DF= -1.08D-08 DXR=  5.70D-03 DFR=  3.25D-05 which will be used.
 Gradient too large for Newton-Raphson -- use scaled steepest descent instead.
     Minimum is close to point  2 DX= -1.21D-02 DF= -4.06D-07 DXR=  4.20D-02 DFR=  1.76D-03 which will be used.
 Gradient too large for Newton-Raphson -- use scaled steepest descent instead.
     Minimum is close to point  2 DX= -2.11D-02 DF= -9.49D-07 DXR=  7.56D-02 DFR=  5.74D-03 which will be used.
 Gradient too large for Newton-Raphson -- use scaled steepest descent instead.
     Accept linear search using points  1 and  2.
 Gradient too large for Newton-Raphson -- use scaled steepest descent instead.
     Accept linear search using points  4 and  5.
 Gradient too large for Newton-Raphson -- use scaled steepest descent instead.
 Restarting incremental Fock formation.
 LinEq1:  Iter=  0 NonCon=     1 RMS=6.36D-05 Max=3.08D-03 NDo=     1
 AX will form     1 AO Fock derivatives at one time.
 LinEq1:  Iter=  1 NonCon=     1 RMS=7.95D-06 Max=2.39D-04 NDo=     1
 LinEq1:  Iter=  2 NonCon=     1 RMS=8.42D-06 Max=2.63D-04 NDo=     1
 LinEq1:  Iter=  3 NonCon=     1 RMS=4.09D-06 Max=1.94D-04 NDo=     1
 LinEq1:  Iter=  4 NonCon=     1 RMS=3.14D-06 Max=1.86D-04 NDo=     1
 LinEq1:  Iter=  5 NonCon=     1 RMS=2.00D-06 Max=9.52D-05 NDo=     1
 LinEq1:  Iter=  6 NonCon=     1 RMS=1.35D-06 Max=4.82D-05 NDo=     1
 LinEq1:  Iter=  7 NonCon=     1 RMS=1.16D-06 Max=4.03D-05 NDo=     1
 LinEq1:  Iter=  8 NonCon=     1 RMS=7.25D-07 Max=2.83D-05 NDo=     1
 LinEq1:  Iter=  9 NonCon=     1 RMS=4.25D-07 Max=1.24D-05 NDo=     1
 LinEq1:  Iter= 10 NonCon=     1 RMS=2.38D-07 Max=8.70D-06 NDo=     1
 LinEq1:  Iter= 11 NonCon=     1 RMS=1.70D-07 Max=7.41D-06 NDo=     1
 LinEq1:  Iter= 12 NonCon=     1 RMS=1.28D-07 Max=4.63D-06 NDo=     1
 LinEq1:  Iter= 13 NonCon=     1 RMS=7.65D-08 Max=2.97D-06 NDo=     1
 LinEq1:  Iter= 14 NonCon=     1 RMS=5.25D-08 Max=3.25D-06 NDo=     1
 LinEq1:  Iter= 15 NonCon=     1 RMS=3.08D-08 Max=1.15D-06 NDo=     1
[...]
 ,0.00008610,-0.00003289,-0.00002978,0.00000984,-0.00005961,-0.00000757
 ,0.06505795,-0.01894254,-0.01937279,-0.05417539,-0.01931000,-0.0130121
 4,-0.02748905,0.05778054,0.04976826,-0.33820902,-0.03373946,-0.0106660
 3,0.71895422,-0.00725261,0.00145989,0.00114746,0.00166029,0.00144888,0
 .00108861,0.00074454,-0.00018215,-0.00018764,0.00100548,0.00022083,-0.
 00061433,0.00055777,-0.00015572,-0.00001418,-0.00161195,-0.00003069,-0
 .00003007,-0.00087286,-0.00017876,0.00029435,-0.00030361,0.00052246,0.
 00037156,-0.00097719,-0.00051986,-0.00025024,-0.00132254,-0.00098912,-
 0.00079581,0.00050641,-0.00001014,-0.00014933,0.00105065,-0.00057354,0
 .00030205,0.00098839,-0.00027061,-0.00053380,-0.00083546,0.00017457,-0
 .00016476,0.00019714,0.00013061,0.00011733,0.00004068,0.00007296,-0.00
 003573,0.00015865,-0.00005816,-0.00008673,0.00005946,-0.00001865,0.000
 08093,0.02621022,-0.05126609,-0.04835846,-0.03316369,-0.01620473,-0.00
 386835,0.02344729,0.03207873,0.01882386,0.01776895,-0.10993129,-0.0346
 9291,-0.03031949,0.49845893,-0.00556974,0.00105769,0.00182590,0.001478
 14,0.00123611,0.00092589,0.00066116,-0.00017041,-0.00018919,0.00078748
 ,0.00017431,-0.00059164,0.00039568,-0.00009778,-0.00002190,-0.00140756
 ,-0.00011200,0.00011782,-0.00062374,-0.00013036,0.00019938,-0.00023406
 ,0.00039662,0.00043474,-0.00088080,-0.00035162,-0.00037964,-0.00106777
 ,-0.00091223,-0.00060713,0.00044365,-0.00001797,-0.00017083,0.00085451
 ,-0.00040756,0.00018133,0.00098032,-0.00043037,-0.00010509,-0.00072824
 ,0.00016650,-0.00012665,0.00016864,0.00013138,0.00007122,0.00004470,0.
 00006735,-0.00002799,0.00012731,-0.00007530,-0.00003343,0.00003607,-0.
 00001126,0.00006141,0.01778150,-0.04547637,-0.03307835,-0.02441250,-0.
 00475410,-0.01129719,0.02150411,0.01664437,0.01971452,0.03170240,-0.03
 141951,-0.09702050,-0.06052228,0.28157144,0.39410450,-0.04485720,-0.00
 146021,0.00093412,-0.00571203,-0.00427512,-0.00304445,-0.00139973,0.00
 030082,0.00035224,-0.00170491,-0.00106520,0.00123896,-0.00084925,-0.00
 019448,0.00020930,0.00373633,-0.00055492,-0.00068145,0.00145467,0.0006
 7035,-0.00078041,0.00106807,0.00010355,-0.00005882,-0.00145068,-0.0004
 6843,-0.00027617,-0.00605780,0.00375834,0.00357127,-0.00098207,0.00007
 863,-0.00012555,-0.00209269,0.00094429,-0.00121647,0.00384855,0.000883
 94,0.00049370,0.00172043,-0.00056404,0.00072656,-0.00061768,-0.0003373
 0,-0.00025498,-0.00009512,-0.00012580,0.00015311,-0.00064377,0.0003078
 4,0.00027654,-0.00011984,0.00012171,-0.00014866,-0.19367215,0.07998705
 ,0.07375087,-0.03300717,0.02611338,0.02479093,0.00343450,0.00135604,0.
 00028324,-0.02909219,-0.03057129,-0.02209597,-0.18849563,-0.08555219,-
 0.06275608,0.48310262,-0.00145990,-0.00990298,0.00090126,-0.00525492,-
 0.00179111,-0.00262760,-0.00177237,0.00090012,0.00057417,-0.00156184,0
 .00001851,0.00084906,-0.00078378,0.00038093,-0.00006972,0.00381425,-0.
 00036779,-0.00052722,0.00117664,0.00019043,-0.00029730,0.00010290,-0.0
 0160162,-0.00028845,0.00160007,0.00100433,0.00045647,0.00472839,-0.001
 03903,-0.00262492,0.00066892,0.00045202,-0.00012376,0.00143831,0.00022
 522,0.00066713,-0.00347462,-0.00060414,-0.00028120,-0.00106804,0.00004
 720,-0.00017369,-0.00038165,-0.00031047,-0.00004031,-0.00004119,-0.000
 07997,-0.00002247,0.00034922,-0.00025369,-0.00003725,0.00003665,-0.000
 06660,-0.00003713,0.04893542,-0.18994365,-0.10296664,0.07092018,0.0280
 0239,0.00289874,0.00135315,-0.05080519,-0.03394580,-0.07537945,0.01933
 172,0.00505630,-0.05448742,-0.20141822,-0.10584979,0.00964513,0.437526
 35,0.00093132,0.00091423,-0.01020921,-0.00383916,-0.00268541,-0.000162
 83,-0.00134496,0.00044710,0.00077862,0.00184328,0.00085922,-0.00025907
 ,0.00092536,-0.00005636,0.00042757,0.00289343,-0.00026114,-0.00039512,
 -0.00139484,-0.00030865,0.00026732,-0.00005816,-0.00028778,-0.00149046
 ,0.00142492,0.00058251,0.00072275,0.00437287,-0.00256729,-0.00057359,-
 0.00084454,-0.00013683,0.00048539,-0.00181728,0.00065560,-0.00009531,-
 0.00309304,-0.00054688,-0.00026877,0.00134072,-0.00016319,0.00015283,-
 0.00028841,-0.00004200,-0.00025056,0.00005026,-0.00002440,-0.00006687,
 0.00031276,-0.00003573,-0.00028128,-0.00004540,-0.00003499,-0.00005605
 ,0.04820582,-0.10496193,-0.15800164,0.06166281,0.00574829,0.01981045,0
 .00028540,-0.03395059,-0.03757102,-0.05896901,0.00221745,0.02455622,-0
 .03721626,-0.10387569,-0.15170125,-0.01585317,0.27053662,0.33160330,0.
 00023063,0.00001862,-0.00001286,-0.00021101,-0.00008773,-0.00005875,-0
 .00011934,0.00001614,0.00002032,-0.00006523,-0.00004459,0.00005200,-0.
 00004283,-0.00000961,0.00001043,0.00018930,0.00006415,0.00004133,0.000
 07165,0.00003109,-0.00003605,0.00004977,0.00000238,-0.00000010,-0.0001
 2186,-0.00002677,-0.00001470,-0.00022006,0.00007077,0.00007168,-0.0000
 4418,0.00000647,-0.00000917,-0.00007379,0.00004010,-0.00005117,0.00019
 604,-0.00005000,-0.00005290,0.00007628,-0.00002628,0.00003383,-0.00000
 645,-0.00001077,-0.00000851,-0.00000297,-0.00000584,0.00000711,-0.0000
 0693,0.00001041,0.00000892,-0.00000414,0.00000593,-0.00000724,0.000741
 42,-0.00270885,-0.00172639,-0.01017858,0.00116153,0.00195917,-0.341868
 67,-0.01258303,0.00869889,-0.01094070,-0.00254101,-0.00103754,0.000562
 40,0.00234263,0.00244266,0.00057914,0.00013876,-0.00013567,0.36054042,
 0.00001855,-0.00019737,0.00001707,-0.00016144,-0.00003609,-0.00002175,
 -0.00008930,0.00001945,0.00002198,-0.00001645,0.00000261,0.00003119,-0
 .00000237,0.00000224,0.00001177,0.00012321,0.00004632,0.00003133,0.000
 00457,0.00000695,-0.00001427,0.00000244,-0.00003469,-0.00004090,0.0000
 7828,0.00002442,0.00001605,0.00014403,-0.00001669,-0.00002470,-0.00000
 094,0.00000296,0.00001092,0.00001175,0.00000732,0.00002612,-0.00010831
 ,0.00003214,0.00003348,0.00000060,0.00000438,-0.00001124,-0.00000241,-
 0.00000424,-0.00000275,-0.00000185,-0.00000410,0.00000116,0.00000202,-
 0.00000317,-0.00000213,0.00000191,-0.00000345,0.00000046,-0.00229702,0
 .00021480,-0.00678503,-0.02230972,0.00467029,0.00065371,-0.01258336,-0
 .05387251,-0.00848148,0.02092972,0.00636130,-0.00070647,0.00193190,0.0
 0061182,-0.00672769,0.00013898,-0.00184709,0.00122065,0.01390502,0.046
 01124,-0.00001280,0.00001687,-0.00020465,-0.00011925,-0.00002636,-0.00
 001149,-0.00006600,0.00001571,0.00001595,0.00001782,0.00003054,-0.0000
 0806,0.00000161,0.00001161,-0.00000208,0.00008933,0.00003462,0.0000224
 6,-0.00000378,-0.00001365,0.00001160,-0.00000023,-0.00004097,-0.000018
 74,0.00007209,0.00002251,0.00001329,0.00013268,-0.00002034,-0.00002204
 ,-0.00000021,0.00001109,-0.00000150,-0.00001671,0.00002680,-0.00000436
 ,-0.00010150,0.00003016,0.00003017,0.00000125,-0.00001187,0.00000958,-
 0.00000161,-0.00000221,-0.00000244,0.00000225,0.00000106,-0.00000435,0
 .00000203,-0.00000266,-0.00000302,-0.00000235,0.00000055,-0.00000384,-
 0.00138859,-0.00675834,0.00316435,-0.01735416,-0.00083792,0.00601582,0
 .00869795,-0.00848441,-0.05013055,0.01827729,0.00079003,0.00508697,0.0
 0210295,-0.00675357,0.00294610,-0.00013541,0.00121833,-0.00232949,-0.0
 0980544,0.01493673,0.03970245,0.00032029,0.00213678,0.00173677,0.00039
 770,0.00105297,0.00077188,0.00240012,-0.00053462,-0.00057369,0.0000850
 4,-0.00004381,-0.00048186,0.00005502,-0.00003399,-0.00023923,-0.003763
 68,-0.00146341,-0.00099012,-0.00010642,-0.00008388,0.00020328,-0.00028
 083,0.00072151,0.00061940,-0.00030312,-0.00024825,-0.00018763,-0.00043
 607,-0.00004501,-0.00000849,0.00007879,-0.00023188,0.00000289,0.000123
 06,-0.00047509,0.00003451,0.00046554,0.00009735,0.00005373,-0.00014156
 ,0.00017470,-0.00011304,0.00012240,0.00015671,0.00012460,0.00001672,0.
 00006952,-0.00000983,-0.00000989,-0.00002324,-0.00001859,0.00002054,0.
 00000626,0.00006829,-0.15077936,-0.11158448,-0.08499877,-0.00860139,-0
 .01874387,-0.01444205,-0.00523028,0.00025359,0.00101618,-0.00062523,0.
 00080342,0.00066890,-0.00064609,0.00325174,0.00330581,0.01290197,0.016
 81312,0.01286490,-0.00044920,-0.00094414,-0.00078495,0.15299294,0.0004
 4555,-0.00068247,-0.00065923,-0.00147353,-0.00111590,0.00009721,-0.000
 10769,0.00002519,-0.00008478,0.00001732,-0.00004638,0.00000835,0.00002
 283,-0.00002032,0.00002486,-0.00006508,0.00002905,0.00019413,-0.000038
 27,0.00001798,-0.00001948,-0.00000598,0.00005353,-0.00008800,0.0000614
 8,0.00001762,0.00003876,0.00012425,-0.00001812,-0.00004486,-0.00009791
 ,-0.00005293,0.00005258,-0.00008828,0.00000563,0.00007964,-0.00010614,
 0.00000230,-0.00001592,0.00017362,0.00000490,0.00001447,-0.00008111,-0
 .00003737,-0.00006726,-0.00000244,-0.00000189,0.00000914,0.00000723,-0
 .00000276,-0.00000165,0.00000931,-0.00000766,0.00000317,-0.10414295,-0
 .17585371,-0.10198025,0.00215162,0.00684444,-0.00009716,0.00080390,0.0
 0331291,-0.00345296,-0.00022125,-0.00004050,0.00039060,0.00297372,0.00
 323065,-0.00514110,-0.00792494,-0.01830219,-0.01266413,0.00029162,-0.0
 0003773,0.00042220,0.10802801,0.18459679,0.00035417,-0.00076944,-0.000
 56771,-0.00130542,-0.00006990,-0.00109158,-0.00023552,-0.00005683,0.00
 010311,-0.00010552,0.00008833,0.00002674,-0.00011357,0.00004203,-0.000
 04531,0.00017367,0.00028379,0.00002271,0.00018821,0.00002731,-0.000019
 55,0.00002254,-0.00013377,0.00004891,0.00006743,0.00005788,0.00000956,
 0.00013076,-0.00003420,-0.00000857,0.00003477,0.00004750,-0.00003752,0
 .00002334,0.00002954,-0.00006721,-0.00011442,-0.00002818,0.00001305,-0
 .00006217,-0.00003019,0.00002878,-0.00007170,-0.00008217,-0.00001311,0
 .00000808,-0.00000185,-0.00001008,0.00000641,0.00000027,-0.00000146,-0
 .00000648,0.00000977,-0.00000850,-0.07887183,-0.10149864,-0.12232410,0
 .00274821,0.00123124,0.00763549,0.00146822,-0.00341845,0.00454112,-0.0
 0017423,0.00032590,-0.00021990,0.00307556,-0.00515912,0.00480869,-0.00
 749541,-0.01423975,-0.01353176,0.00023192,0.00050081,-0.00017586,0.081
 01222,0.12090776,0.12358446,0.00081916,0.00030066,0.00020493,-0.000011
 38,-0.00020100,-0.00016481,0.00006448,-0.00006135,-0.00005552,-0.00011
 189,-0.00009743,0.00004763,-0.00005570,-0.00001725,-0.00001336,-0.0000
 4514,0.00003213,0.00003116,0.00009175,0.00003696,-0.00002747,0.0000426
 6,0.00008178,0.00006820,-0.00014797,-0.00005989,-0.00004137,-0.0003336
 3,0.00018392,0.00016871,-0.00005275,-0.00001779,-0.00001277,-0.0001180
 3,0.00002203,-0.00009876,0.00030465,0.00002251,0.00000013,0.00009142,-
 0.00001547,0.00003692,-0.00003297,-0.00002792,-0.00002073,-0.00000780,
 -0.00000280,0.00001317,-0.00003397,0.00001780,0.00001727,-0.00000923,0
 .00001233,-0.00000511,-0.00802689,0.02254889,0.01912491,-0.12708651,0.
 09087032,0.08052575,0.01255100,-0.01175673,-0.01028214,-0.00109603,-0.
 00291545,-0.00183701,-0.00104538,-0.00129347,-0.00103531,-0.00707542,-
 0.00032303,0.00072146,0.00078917,0.00056663,0.00016352,0.00068024,-0.0
 0014060,-0.00037686,0.12921670,-0.00015712,0.00004552,-0.00005710,0.00
 005799,0.00002334,0.00001655,0.00003740,-0.00001505,0.00000204,0.00004
 041,0.00001021,-0.00000972,0.00003352,-0.00000642,0.00000930,-0.000059
 03,0.00000097,-0.00002109,-0.00005128,-0.00000366,0.00000526,-0.000021
 90,0.00001731,-0.00003000,0.00004551,0.00000805,0.00001813,0.00006965,
 -0.00002773,0.00000752,-0.00000267,-0.00001468,0.00002051,0.00000721,-
 0.00001954,0.00003556,-0.00007613,0.00000685,0.00000915,-0.00000054,0.
 00001698,-0.00002689,0.00000108,0.00000352,0.00000064,-0.00000027,0.00
 000001,0.00000007,0.00000126,0.00000244,-0.00000602,0.00000388,-0.0000
 0529,0.00000489,-0.00197157,0.00336489,0.00213533,0.09138903,-0.175092
 31,-0.11968075,0.01194502,-0.00936930,-0.01093756,-0.00336307,0.001305
 31,-0.00507207,-0.00073960,-0.00030448,0.00028650,-0.00108308,0.004568
 01,-0.00312162,0.00010025,-0.00097314,0.00245548,0.00032800,-0.0011358
 2,0.00185767,-0.09732131,0.17855340,-0.00017375,-0.00008602,0.00006649
 ,0.00004827,0.00003296,0.00002310,0.00002528,0.00000825,-0.00001493,0.
 00000268,0.00003615,-0.00002800,-0.00000813,0.00001970,-0.00001942,-0.
 00004347,-0.00002670,0.00001147,0.00000664,-0.00002503,0.00002290,-0.0
 0001737,-0.00003647,0.00002638,0.00004574,0.00002465,0.00000017,0.0000
 7606,-0.00000022,-0.00004675,0.00003696,0.00001411,-0.00001402,0.00004
 855,-0.00000269,0.00000834,-0.00008185,0.00000308,0.00000874,-0.000058
 57,-0.00000098,0.00000214,0.00000317,0.00000250,0.00000452,0.00000379,
 0.00000422,-0.00000736,0.00000380,-0.00000708,0.00000362,-0.00000047,0
 .00000034,-0.00000064,-0.00105416,0.00057352,0.00146291,0.08095414,-0.
 11964600,-0.14034240,0.00922070,-0.00943144,-0.00535018,-0.00220745,-0
 .00509883,0.00367233,-0.00057973,0.00032422,-0.00029248,0.00009853,-0.
 00317107,0.00582847,-0.00022060,0.00242574,-0.00195413,0.00000878,0.00
 188682,-0.00186634,-0.08666047,0.13183819,0.13988641,0.00082226,-0.000
 23994,-0.00023978,-0.00032307,-0.00020751,-0.00015330,-0.00014800,0.00
 004831,0.00004751,-0.00011201,-0.00002987,0.00010164,-0.00005558,0.000
 01528,0.00001311,0.00030160,0.00000183,-0.00001659,0.00009080,0.000021
 40,-0.00003923,0.00004486,-0.00008141,-0.00006613,0.00006341,0.0000681
 0,0.00005082,-0.00001641,0.00019922,0.00016446,-0.00005283,0.00001455,
 0.00001423,-0.00011835,0.00008891,-0.00004227,-0.00004610,-0.00003752,
 -0.00002602,0.00009076,-0.00003067,0.00002345,-0.00003312,-0.00002103,
 -0.00001468,-0.00000755,-0.00001244,0.00000504,-0.00003388,0.00002489,
 0.00002265,-0.00000895,0.00000233,-0.00001309,-0.00112159,0.00123753,0
 .00105145,-0.00131752,0.00238918,0.00254176,0.01250872,0.01304728,0.01
 013031,-0.11999743,-0.09265915,-0.07094528,-0.00720370,-0.02333900,-0.
 01868710,-0.00708423,-0.00085446,0.00028250,0.00080347,-0.00027391,-0.
 00052856,0.00012034,-0.00008506,-0.00017612,0.00052642,0.00068471,0.00
 054375,0.12162994,0.00022004,0.00003798,-0.00008644,-0.00009439,-0.000
 05138,-0.00000180,-0.00005763,0.00000842,0.00002463,-0.00001322,-0.000
 02258,0.00004455,0.00000025,-0.00001311,0.00002146,0.00010151,0.000013
 22,0.00000368,0.00000544,0.00001875,-0.00003018,0.00002263,0.00001219,
 -0.00003688,-0.00003046,-0.00001225,0.00000841,-0.00006006,0.00003557,
 0.00003366,-0.00003705,-0.00000798,0.00001239,-0.00005190,0.00001441,-
 0.00001111,0.00005352,0.00000259,-0.00002651,0.00005968,-0.00000200,0.
 00000447,-0.00000463,0.00000053,-0.00000724,-0.00000380,-0.00000664,0.
 00000552,-0.00000422,0.00000554,0.00000263,-0.00000049,0.00000022,-0.0
 0000104,0.00068341,-0.00013496,0.00033552,0.00283745,0.00179743,-0.005
 06209,-0.01065482,-0.00927448,-0.00942070,-0.09317806,-0.19083349,-0.1
 2088586,0.00118274,0.00153613,0.00043230,-0.00009501,0.00458645,-0.003
 16915,0.00019256,-0.00100502,0.00242265,0.00000280,-0.00060034,0.00078
 193,-0.00063528,-0.00037532,-0.00044477,0.09962521,0.19539961,0.000136
 66,-0.00005751,0.00007076,-0.00005968,0.00000543,-0.00003382,-0.000039
 12,0.00001818,-0.00000006,-0.00004122,-0.00000493,0.00000504,-0.000035
 52,0.00001019,-0.00001275,0.00006452,0.00000962,0.00000532,0.00005329,
 0.00000257,0.00000122,0.00001911,-0.00003036,0.00002922,-0.00003035,0.
 00000226,-0.00001653,-0.00004883,0.00001768,0.00001649,0.00000860,0.00
 001953,-0.00002070,-0.00000030,0.00003080,-0.00002543,0.00004888,-0.00
 002103,0.00001065,-0.00000873,-0.00002381,0.00002191,-0.00000111,-0.00
 000615,0.00000466,0.00000083,0.00000108,-0.00000096,-0.00000120,0.0000
 0084,0.00000341,-0.00000402,0.00000376,-0.00000643,0.00059557,0.000302
 11,-0.00038561,0.00291217,-0.00503201,0.00340260,-0.00937261,-0.010932
 51,-0.00540253,-0.07137294,-0.12091621,-0.13168765,0.00149063,0.001991
 00,0.00246457,0.00090665,-0.00312079,0.00581832,-0.00014498,0.00245258
 ,-0.00193633,-0.00010423,0.00078733,-0.00089620,-0.00054284,-0.0005287
 5,-0.00018632,0.07588450,0.13316137,0.13062795,0.00042125,-0.00207579,
 -0.00172990,-0.00043215,0.00000820,0.00003561,-0.00030936,0.00022436,0
 .00020071,0.00007277,0.00048155,-0.00005045,0.00004838,0.00024283,-0.0
 0001237,0.00046441,-0.00006102,-0.00007619,-0.00010229,-0.00018540,0.0
 0011907,-0.00025302,-0.00075246,-0.00059305,0.00237196,0.00072164,0.00
 045751,0.00037354,-0.00093182,-0.00085128,0.00007168,0.00004316,0.0002
 3032,0.00010896,0.00005809,0.00047401,-0.00381563,0.00116397,0.0011737
 7,-0.00013600,0.00007337,-0.00019525,-0.00001050,0.00002262,0.00001905
 ,0.00001822,-0.00000336,-0.00006981,0.00012493,-0.00014754,-0.00012572
 ,0.00002204,-0.00006767,0.00000755,-0.00038358,-0.00384291,-0.00255281
 ,-0.00060276,-0.00083011,-0.00067582,-0.00515361,-0.00117034,-0.000164
 00,-0.00918781,0.01737469,0.01530815,-0.15891564,0.10685376,0.09521104
 ,0.01316328,-0.01487842,-0.01321789,-0.00047374,0.00093161,0.00076079,
 0.00059240,-0.00052923,-0.00043625,0.00011304,0.00010267,-0.00002082,0
 .00067773,-0.00006626,-0.00031376,0.16113151,-0.00038958,-0.00089573,-
 0.00078223,-0.00016081,-0.00002757,-0.00003481,-0.00008631,0.00003151,
 0.00005898,0.00009903,0.00005330,0.00006933,0.00010921,-0.00002443,0.0
 0004609,0.00014335,0.00000585,-0.00002792,-0.00018164,-0.00002518,0.00
 003457,-0.00002448,-0.00000917,-0.00013835,0.00030142,0.00009467,-0.00
 005231,0.00160060,-0.00106975,-0.00006514,-0.00001403,-0.00001858,0.00
 004563,-0.00000235,-0.00004195,0.00004960,-0.00024816,0.00013468,0.000
 29036,0.00002474,0.00002704,-0.00003784,-0.00000790,-0.00000142,0.0000
 0034,-0.00000687,-0.00000860,-0.00000226,0.00009122,-0.00004343,-0.000
 08256,0.00000501,-0.00000735,0.00000972,-0.00356489,0.00264917,-0.0052
 0311,0.00019653,-0.00009219,0.00032110,-0.00172264,0.00314294,-0.00343
 147,-0.00352426,0.00815121,0.00133459,0.09941175,-0.15783425,-0.100079
 16,0.00986194,-0.01889996,-0.01428795,-0.00030393,0.00001706,0.0005053
 6,0.00055923,-0.00018491,-0.00066924,0.00019078,-0.00058407,0.00078284
 ,0.00040324,-0.00112949,0.00185771,-0.10276018,0.16659061,-0.00033882,
 -0.00067499,-0.00045264,-0.00010384,-0.00004560,-0.00000345,-0.0000540
 5,0.00004007,0.00000206,-0.00003323,0.00000044,-0.00006225,-0.00004379
 ,0.00003105,-0.00003492,0.00009124,-0.00001554,0.00001111,0.00007242,-
 0.00001435,0.00001816,0.00000531,-0.00009364,0.00008372,0.00011053,-0.
 00007822,0.00006564,0.00123107,0.00008868,-0.00110999,0.00010422,0.000
 04867,-0.00006463,0.00008783,0.00008863,-0.00000736,0.00001897,0.00020
 415,-0.00003619,-0.00018471,0.00000866,0.00000104,-0.00000595,-0.00000
 151,-0.00000218,0.00000414,0.00001040,-0.00000487,0.00007023,-0.000067
 93,-0.00000961,-0.00000974,0.00000123,-0.00001009,-0.00232081,-0.00518
 884,0.00512776,0.00016600,0.00038652,-0.00019117,-0.00061552,-0.003466
 67,0.00463543,-0.00187577,0.00000224,0.00692417,0.08907360,-0.10054210
 ,-0.13221279,0.00713696,-0.01271326,-0.01320700,-0.00025621,0.00042665
 ,-0.00020583,0.00046039,-0.00060021,0.00006212,0.00005076,0.00078877,-
 0.00090503,0.00007099,0.00188858,-0.00187083,-0.09291222,0.11948812,0.
 13345963\\-0.00000004,0.,0.,-0.00000010,-0.00000020,0.00000025,-0.0000
 0012,0.00000015,0.00000003,-0.00000033,0.00000038,0.00000011,-0.000000
 38,0.00000074,-0.00000010,-0.00000012,-0.00000006,0.00000019,-0.000000
 40,0.00000054,0.00000005,-0.00000002,0.00000057,-0.00000035,0.00000008
 ,0.00000059,-0.00000048,0.00000010,0.00000024,-0.00000027,0.00000031,0
 .00000027,-0.00000054,0.00000033,-0.00000007,-0.00000031,0.00000011,0.
 00000040,-0.00000040,0.00000037,0.00000002,-0.00000041,-0.00000007,-0.
 00000007,0.00000011,-0.00000023,0.00000026,0.00000007,0.00000006,0.000
 00021,-0.00000020,0.00000022,-0.00000003,-0.00000021,-0.00000002,-0.00
 000051,0.00000033,-0.00000005,-0.00000072,0.00000044,0.00000007,-0.000
 00065,0.00000042,0.00000006,-0.00000041,0.00000026,0.00000009,-0.00000
 024,0.00000015,-0.00000003,-0.00000032,0.00000019,0.00000006,-0.000000
 32,0.00000020,-0.00000005,-0.00000024,0.00000015,0.,-0.00000038,0.0000
 0022,0.00000007,-0.00000013,0.00000010,0.00000003,0.,0.\\\@


 NEVER TEACH A PIG TO SING.
 IT WASTES YOUR TIME AND ANNOYS THE PIG.
     -- SEEN ON A GREETING CARD
 Job cpu time:       0 days  3 hours 53 minutes 27.9 seconds.
 Elapsed time:       0 days  0 hours  3 minutes 47.9 seconds.
 File lengths (MBytes):  RWF=    561 Int=      0 D2E=      0 Chk=     14 Scr=      2
 Normal termination of Gaussian 16 at Mon May 22 20:22:33 2023.
