 Entering Gaussian System, Link 0=g16
 Input=OH_AGE_opt_freq_fix_reposition_1.com
 Output=OH_AGE_opt_freq_fix_reposition_1.log
 Initial command:
 /apps/applications/G16/g16.c01/l1.exe "/scratch/x2496a02/MOF_508/Gau-35952.inp" -scrdir="/scratch/x2496a02/MOF_508/"
 Default CPUs for threads: 0-39
 Default is to use a total of  40 processors:
                               40 via shared-memory
                                1 via Linda
 Entering Link 1 = /apps/applications/G16/g16.c01/l1.exe PID=     35953.
  
 Copyright (c) 1988-2019, Gaussian, Inc.  All Rights Reserved.
  
 This is part of the Gaussian(R) 16 program.  It is based on
 the Gaussian(R) 09 system (copyright 2009, Gaussian, Inc.),
 the Gaussian(R) 03 system (copyright 2003, Gaussian, Inc.),
 the Gaussian(R) 98 system (copyright 1998, Gaussian, Inc.),
 the Gaussian(R) 94 system (copyright 1995, Gaussian, Inc.),
 the Gaussian 92(TM) system (copyright 1992, Gaussian, Inc.),
 the Gaussian 90(TM) system (copyright 1990, Gaussian, Inc.),
 the Gaussian 88(TM) system (copyright 1988, Gaussian, Inc.),
 the Gaussian 86(TM) system (copyright 1986, Carnegie Mellon
 University), and the Gaussian 82(TM) system (copyright 1983,
 Carnegie Mellon University). Gaussian is a federally registered
 trademark of Gaussian, Inc.
  
 This software contains proprietary and confidential information,
 including trade secrets, belonging to Gaussian, Inc.
  
 This software is provided under written license and may be
 used, copied, transmitted, or stored only in accord with that
 written license.
  
 The following legend is applicable only to US Government
 contracts under FAR:
  
                    RESTRICTED RIGHTS LEGEND
  
 Use, reproduction and disclosure by the US Government is
 subject to restrictions as set forth in subparagraphs (a)
 and (c) of the Commercial Computer Software - Restricted
 Rights clause in FAR 52.227-19.
  
 Gaussian, Inc.
 340 Quinnipiac St., Bldg. 40, Wallingford CT 06492
  
  
 ---------------------------------------------------------------
 Warning -- This program may not be used in any manner that
 competes with the business of Gaussian, Inc. or will provide
 assistance to any competitor of Gaussian, Inc.  The licensee
 of this program is prohibited from giving any competitor of
 Gaussian, Inc. access to this program.  By using this program,
 the user acknowledges that Gaussian, Inc. is engaged in the
 business of creating and licensing software in the field of
 computational chemistry and represents and warrants to the
 licensee that it is not a competitor of Gaussian, Inc. and that
 it will not use this program in any manner prohibited above.
 ---------------------------------------------------------------
  

 Cite this work as:
 Gaussian 16, Revision C.01,
 M. J. Frisch, G. W. Trucks, H. B. Schlegel, G. E. Scuseria, 
 M. A. Robb, J. R. Cheeseman, G. Scalmani, V. Barone, 
 G. A. Petersson, H. Nakatsuji, X. Li, M. Caricato, A. V. Marenich, 
 J. Bloino, B. G. Janesko, R. Gomperts, B. Mennucci, H. P. Hratchian, 
 J. V. Ortiz, A. F. Izmaylov, J. L. Sonnenberg, D. Williams-Young, 
 F. Ding, F. Lipparini, F. Egidi, J. Goings, B. Peng, A. Petrone, 
 T. Henderson, D. Ranasinghe, V. G. Zakrzewski, J. Gao, N. Rega, 
 G. Zheng, W. Liang, M. Hada, M. Ehara, K. Toyota, R. Fukuda, 
 J. Hasegawa, M. Ishida, T. Nakajima, Y. Honda, O. Kitao, H. Nakai, 
 T. Vreven, K. Throssell, J. A. Montgomery, Jr., J. E. Peralta, 
 F. Ogliaro, M. J. Bearpark, J. J. Heyd, E. N. Brothers, K. N. Kudin, 
 V. N. Staroverov, T. A. Keith, R. Kobayashi, J. Normand, 
 K. Raghavachari, A. P. Rendell, J. C. Burant, S. S. Iyengar, 
 J. Tomasi, M. Cossi, J. M. Millam, M. Klene, C. Adamo, R. Cammi, 
 J. W. Ochterski, R. L. Martin, K. Morokuma, O. Farkas, 
 J. B. Foresman, and D. J. Fox, Gaussian, Inc., Wallingford CT, 2019.
 
 ******************************************
 Gaussian 16:  ES64L-G16RevC.01  3-Jul-2019
                 4-Jul-2023 
 ******************************************
 %nprocshared=20
 Will use up to   20 processors via shared memory.
 %mem=20GB
 %chk=OH_AGE_opt_freq_fix_reposition_1.chk
 Will use    4 GPUs:
 Thread  CPU   GPU
      0    0     0
      1   10     1
      2   11     2
      3   19     3
      4    1    -1
      5    2    -1
      6    3    -1
      7    4    -1
      8    5    -1
      9    6    -1
     10    7    -1
     11    8    -1
     12    9    -1
     13   12    -1
     14   13    -1
     15   14    -1
     16   15    -1
     17   16    -1
     18   17    -1
     19   18    -1
 SetGPE:  set environment variable "MP_BIND" = "yes"
 SetGPE:  set environment variable "MP_BLIST" = "0,10,11,19,1,2,3,4,5,6,7,8,9,12,13,14,15,16,17,18"
 Properties for Device   0
 Minimum vector length:                              32
 Maximum vector length:                            1024
 Number of SMPs:                                     80
 Maximum number of threads per SMP:                2048
 Number of ASync Engines:                             7
 Memory:                                           3193921536
 Properties for Device   1
 Minimum vector length:                              32
 Maximum vector length:                            1024
 Number of SMPs:                                     80
 Maximum number of threads per SMP:                2048
 Number of ASync Engines:                             7
 Memory:                                           3201261568
 Properties for Device   2
 Minimum vector length:                              32
 Maximum vector length:                            1024
 Number of SMPs:                                     80
 Maximum number of threads per SMP:                2048
 Number of ASync Engines:                             7
 Memory:                                           3201261568
 Properties for Device   3
 Minimum vector length:                              32
 Maximum vector length:                            1024
 Number of SMPs:                                     80
 Maximum number of threads per SMP:                2048
 Number of ASync Engines:                             7
 Memory:                                           3201261568
   2874529382 words of memory will be used on each GPU.
 ----------------------------------------------------------------------
 # opt=(calcall,tight,cartesian) freq b3lyp/gen nosymm scf=(qc,maxcycle
 =1024) pseudo=read
 ----------------------------------------------------------------------
 1/7=10,10=4,18=10,26=3,38=1/1,3;
 2/12=2,15=1,17=6,18=5,29=2,40=1/2;
 3/5=7,11=2,16=1,17=8,25=1,30=1,71=2,74=-5,140=1/1,2,3;
 4//1;
 5/5=2,7=1024,8=3,38=5/8;
 8/6=4,10=90,11=11/1;
 11/6=1,8=1,9=11,15=111,16=1,31=1/1,2,10;
 10/6=1,31=1/2;
 6/7=2,8=2,9=2,10=2,18=1,28=1/1;
 7/7=1,10=1,25=1,30=1/1,2,3,16;
 1/7=10,10=4,18=10,26=3/3(3);
 2/15=1,29=1/2;
 7/7=1,8=1,9=1,25=1,30=1,44=-1/16;
 99/12=1/99;
 2/15=1,29=1/2;
 3/5=7,6=1,11=2,16=1,17=8,25=1,30=1,71=2,74=-5,82=7,140=1/1,2,3;
 4/5=5,16=3,69=1/1;
 5/5=2,7=1024,8=3,38=5/8;
 8/6=4,10=90,11=11/1;
 11/6=1,8=1,9=11,15=111,16=1,31=1/1,2,10;
 10/6=1,31=1/2;
 7/7=1,10=1,25=1,30=1/1,2,3,16;
 1/7=10,10=4,18=10,26=3/3(-8);
 2/15=1,29=1/2;
 6/7=2,8=2,9=2,10=2,18=1,19=2,28=1/1;
 7/7=1,8=1,9=1,25=1,30=1,44=-1/16;
 99/12=1/99;
 --------------------------------
 OH_AGE_opt_freq_fix_reposition_1
 --------------------------------
 Symbolic Z-matrix:
 Charge =  0 Multiplicity = 1
 Zn                   0    -2.63961  -0.09356  -0.15627 
 O                    0    -1.10846  -1.28867  -1.00741 
 O                    0     0.83681   0.18897  -0.70312 
 O                    -1   -1.92748  -0.6336    1.71298 
 O                    -1   -0.37019   1.00409   1.90411 
 C                    -1   -1.06156   0.05698   2.34108 
 Zn                   0    -0.19486   1.81428  -0.12876 
 O                    -1   -1.61914   3.1992    0.53705 
 O                    -1   -3.32262   1.71361   0.71537 
 O                    -1   -1.07828   1.97145  -2.04692 
 O                    -1   -2.97367   0.73238  -1.99787 
 C                    -1   -2.7969    2.8513    0.83512 
 C                    -1   -2.13644   1.5126   -2.54193 
 H                    -1   -0.90199  -0.23305   3.39697 
 H                    -1   -3.44338   3.64412   1.25248 
 H                    -1   -2.37325   1.82404  -3.57475 
 C                    -1    2.574     2.84052  -0.54744 
 C                    -1    3.68373   3.68294  -0.53374 
 C                    -1    3.54212   4.97314  -0.02101 
 C                    -1    2.29437   5.3787    0.45606 
 C                    -1    1.23258   4.47796   0.40765 
 N                    -1    1.37466   3.23393  -0.08203 
 H                    -1    4.38944   5.65223   0.00573 
 H                    -1    2.61251   1.82382  -0.92837 
 H                    -1    4.63414   3.32756  -0.91725 
 H                    -1    2.14032   6.37339   0.86066 
 H                    -1    0.23763   4.73161   0.75937 
 C                    -1   -4.70303  -1.976     1.01168 
 C                    -1   -5.8544   -2.75683   1.08154 
 C                    -1   -6.70939  -2.79437  -0.02114 
 C                    -1   -6.38346  -2.04869  -1.15493 
 C                    -1   -5.21458  -1.29073  -1.14776 
 N                    -1   -4.39162  -1.25954  -0.08364 
 H                    -1   -7.61445  -3.39421   0.00308 
 H                    -1   -3.9984   -1.90431   1.83443 
 H                    -1   -6.07003  -3.31984   1.98328 
 H                    -1   -7.02008  -2.04808  -2.03314 
 H                    -1   -4.9071   -0.68675  -1.99576 
 H                    0    -0.18752  -0.69744  -0.95032 
 H                    0     1.36538  -0.2172    0.001 
 H                    0    -0.93973  -2.0645   -0.4571 
 C                    0     3.82454   2.85869   7.16159 
 C                    0     4.28941   2.2705    6.0565 
 C                    0     3.52093   2.15721   4.77367 
 O                    0     3.53242   0.7977    4.34671 
 C                    0     2.88116   0.60399   3.09808 
 C                    0     2.82957  -0.88218   2.83708 
 C                    0     3.80167  -1.55591   1.9648 
 O                    0     2.47057  -1.26217   1.49772 
 H                    0     4.43134   2.94515   8.05826 
 H                    0     2.82099   3.27639   7.20693 
 H                    0     5.29348   1.84816   6.03937 
 H                    0     3.99229   2.78536   3.99658 
 H                    0     2.48653   2.51114   4.90478 
 H                    0     3.43043   1.10728   2.28556 
 H                    0     1.85847   1.00839   3.11599 
 H                    0     2.33993  -1.4693    3.61465 
 H                    0     4.01277  -2.61517   2.10159 
 H                    0     4.59218  -0.97175   1.49519 
 

 GradGradGradGradGradGradGradGradGradGradGradGradGradGradGradGradGradGrad
 Berny optimization.
 Initialization pass.
 No Z-matrix variables, so optimization will use Cartesian coordinates.
 Trust Radius=3.00D-01 FncErr=1.00D-07 GrdErr=1.00D-06 EigMax=2.50D+02 EigMin=1.00D-04
 Number of steps in this run=    187 maximum allowed number of steps=    354.
 GradGradGradGradGradGradGradGradGradGradGradGradGradGradGradGradGradGrad

 Symmetry turned off by external request.
 Stoichiometry    C19H26N2O10Zn2
 Framework group  C1[X(C19H26N2O10Zn2)]
 Deg. of freedom   171
 Full point group                 C1      NOp   1
                          Input orientation:                          
 ---------------------------------------------------------------------
 Center     Atomic      Atomic             Coordinates (Angstroms)
 Number     Number       Type             X           Y           Z
 ---------------------------------------------------------------------
      1         30           0       -2.639609   -0.093557   -0.156270
      2          8           0       -1.108461   -1.288667   -1.007415
      3          8           0        0.836810    0.188970   -0.703116
      4          8           0       -1.927476   -0.633601    1.712983
      5          8           0       -0.370193    1.004094    1.904112
      6          6           0       -1.061555    0.056982    2.341081
      7         30           0       -0.194864    1.814282   -0.128755
      8          8           0       -1.619144    3.199200    0.537049
      9          8           0       -3.322624    1.713610    0.715371
     10          8           0       -1.078277    1.971447   -2.046925
     11          8           0       -2.973673    0.732379   -1.997873
     12          6           0       -2.796899    2.851304    0.835116
     13          6           0       -2.136438    1.512597   -2.541928
     14          1           0       -0.901987   -0.233052    3.396966
     15          1           0       -3.443381    3.644119    1.252478
     16          1           0       -2.373254    1.824036   -3.574746
     17          6           0        2.574003    2.840520   -0.547438
     18          6           0        3.683734    3.682942   -0.533743
     19          6           0        3.542121    4.973140   -0.021012
     20          6           0        2.294370    5.378698    0.456058
     21          6           0        1.232582    4.477957    0.407646
     22          7           0        1.374664    3.233930   -0.082030
     23          1           0        4.389444    5.652229    0.005731
     24          1           0        2.612514    1.823815   -0.928366
     25          1           0        4.634137    3.327555   -0.917253
     26          1           0        2.140319    6.373388    0.860660
     27          1           0        0.237631    4.731613    0.759365
     28          6           0       -4.703033   -1.975997    1.011679
     29          6           0       -5.854396   -2.756831    1.081541
     30          6           0       -6.709391   -2.794372   -0.021137
     31          6           0       -6.383457   -2.048694   -1.154930
     32          6           0       -5.214580   -1.290733   -1.147760
     33          7           0       -4.391619   -1.259539   -0.083644
     34          1           0       -7.614448   -3.394209    0.003079
     35          1           0       -3.998396   -1.904305    1.834434
     36          1           0       -6.070025   -3.319841    1.983275
     37          1           0       -7.020085   -2.048080   -2.033144
     38          1           0       -4.907096   -0.686746   -1.995762
     39          1           0       -0.187518   -0.697443   -0.950320
     40          1           0        1.365379   -0.217201    0.000999
     41          1           0       -0.939727   -2.064499   -0.457102
     42          6           0        3.824536    2.858686    7.161590
     43          6           0        4.289411    2.270499    6.056503
     44          6           0        3.520928    2.157210    4.773673
     45          8           0        3.532417    0.797702    4.346710
     46          6           0        2.881159    0.603989    3.098075
     47          6           0        2.829569   -0.882175    2.837080
     48          6           0        3.801665   -1.555911    1.964800
     49          8           0        2.470573   -1.262166    1.497716
     50          1           0        4.431339    2.945148    8.058257
     51          1           0        2.820986    3.276389    7.206933
     52          1           0        5.293476    1.848162    6.039370
     53          1           0        3.992288    2.785364    3.996583
     54          1           0        2.486534    2.511143    4.904775
     55          1           0        3.430427    1.107281    2.285556
     56          1           0        1.858467    1.008388    3.115988
     57          1           0        2.339926   -1.469303    3.614653
     58          1           0        4.012772   -2.615167    2.101593
     59          1           0        4.592183   -0.971745    1.495187
 ---------------------------------------------------------------------
 Rotational constants (GHZ):           0.1630883           0.0642172           0.0551910
 General basis read from cards:  (5D, 7F)
 ======================================================================================================
                                       Pseudopotential Parameters
 ======================================================================================================
  Center     Atomic      Valence      Angular      Power
  Number     Number     Electrons     Momentum     of R      Exponent        Coefficient   SO-Coeffient
 ======================================================================================================
    1         30           12
                                      F and up 
                                                     1      386.7379660      -18.00000000    0.00000000
                                                     2       72.8587359     -124.35274030    0.00000000
                                                     2       15.9066170      -30.66018220    0.00000000
                                                     2        4.3502340      -10.63589890    0.00000000
                                                     2        1.2842199       -0.76836230    0.00000000
                                      S - F
                                                     0       19.0867858        3.00000000    0.00000000
                                                     1        5.0231080       22.52342250    0.00000000
                                                     2        1.2701744       48.44659420    0.00000000
                                                     2        1.0671287      -44.55601190    0.00000000
                                                     2        0.9264190       12.99839580    0.00000000
                                      P - F
                                                     0       43.4927750        5.00000000    0.00000000
                                                     1       20.8692669       20.74355890    0.00000000
                                                     2       21.7118378       90.30271580    0.00000000
                                                     2        6.3616915       74.66103160    0.00000000
                                                     2        1.2291195        9.88944240    0.00000000
                                      D - F
                                                     2       13.5851800       -4.84903590    0.00000000
                                                     2        9.8373050        3.69133790    0.00000000
                                                     2        0.8373113       -0.50373190    0.00000000
    2          8
                                   No pseudopotential on this center.
    3          8
                                   No pseudopotential on this center.
    4          8
                                   No pseudopotential on this center.
    5          8
                                   No pseudopotential on this center.
    6          6
                                   No pseudopotential on this center.
    7         30           12
                                      F and up 
                                                     1      386.7379660      -18.00000000    0.00000000
                                                     2       72.8587359     -124.35274030    0.00000000
                                                     2       15.9066170      -30.66018220    0.00000000
                                                     2        4.3502340      -10.63589890    0.00000000
                                                     2        1.2842199       -0.76836230    0.00000000
                                      S - F
                                                     0       19.0867858        3.00000000    0.00000000
                                                     1        5.0231080       22.52342250    0.00000000
                                                     2        1.2701744       48.44659420    0.00000000
                                                     2        1.0671287      -44.55601190    0.00000000
                                                     2        0.9264190       12.99839580    0.00000000
                                      P - F
                                                     0       43.4927750        5.00000000    0.00000000
                                                     1       20.8692669       20.74355890    0.00000000
                                                     2       21.7118378       90.30271580    0.00000000
                                                     2        6.3616915       74.66103160    0.00000000
                                                     2        1.2291195        9.88944240    0.00000000
                                      D - F
                                                     2       13.5851800       -4.84903590    0.00000000
                                                     2        9.8373050        3.69133790    0.00000000
                                                     2        0.8373113       -0.50373190    0.00000000
    8          8
                                   No pseudopotential on this center.
    9          8
                                   No pseudopotential on this center.
   10          8
                                   No pseudopotential on this center.
   11          8
                                   No pseudopotential on this center.
   12          6
                                   No pseudopotential on this center.
   13          6
                                   No pseudopotential on this center.
   14          1
                                   No pseudopotential on this center.
   15          1
                                   No pseudopotential on this center.
   16          1
                                   No pseudopotential on this center.
   17          6
                                   No pseudopotential on this center.
   18          6
                                   No pseudopotential on this center.
   19          6
                                   No pseudopotential on this center.
   20          6
                                   No pseudopotential on this center.
   21          6
                                   No pseudopotential on this center.
   22          7
                                   No pseudopotential on this center.
   23          1
                                   No pseudopotential on this center.
   24          1
                                   No pseudopotential on this center.
   25          1
                                   No pseudopotential on this center.
   26          1
                                   No pseudopotential on this center.
   27          1
                                   No pseudopotential on this center.
   28          6
                                   No pseudopotential on this center.
   29          6
                                   No pseudopotential on this center.
   30          6
                                   No pseudopotential on this center.
   31          6
                                   No pseudopotential on this center.
   32          6
                                   No pseudopotential on this center.
   33          7
                                   No pseudopotential on this center.
   34          1
                                   No pseudopotential on this center.
   35          1
                                   No pseudopotential on this center.
   36          1
                                   No pseudopotential on this center.
   37          1
                                   No pseudopotential on this center.
   38          1
                                   No pseudopotential on this center.
   39          1
                                   No pseudopotential on this center.
   40          1
                                   No pseudopotential on this center.
   41          1
                                   No pseudopotential on this center.
   42          6
                                   No pseudopotential on this center.
   43          6
                                   No pseudopotential on this center.
   44          6
                                   No pseudopotential on this center.
   45          8
                                   No pseudopotential on this center.
   46          6
                                   No pseudopotential on this center.
   47          6
                                   No pseudopotential on this center.
   48          6
                                   No pseudopotential on this center.
   49          8
                                   No pseudopotential on this center.
   50          1
                                   No pseudopotential on this center.
   51          1
                                   No pseudopotential on this center.
   52          1
                                   No pseudopotential on this center.
   53          1
                                   No pseudopotential on this center.
   54          1
                                   No pseudopotential on this center.
   55          1
                                   No pseudopotential on this center.
   56          1
                                   No pseudopotential on this center.
   57          1
                                   No pseudopotential on this center.
   58          1
                                   No pseudopotential on this center.
   59          1
                                   No pseudopotential on this center.
 ======================================================================================================
   724 basis functions,  1252 primitive gaussians,   759 cartesian basis functions
   129 alpha electrons      129 beta electrons
       nuclear repulsion energy      3850.4816392222 Hartrees.
 NAtoms=   59 NActive=   59 NUniq=   59 SFac= 1.00D+00 NAtFMM=   60 NAOKFM=F Big=F
 Integral buffers will be    131072 words long.
 Raffenetti 2 integral format.
 Two-electron integral symmetry is turned off.
 One-electron integrals computed using PRISM.
   1 Symmetry operations used in ECPInt.
 ECPInt:  NShTT=   30135 NPrTT=  137153 LenC2=   23480 LenP2D=   63006.
 LDataN:  DoStor=T MaxTD1= 5 Len=  102
 NBasis=   724 RedAO= T EigKep=  6.03D-06  NBF=   724
 NBsUse=   724 1.00D-06 EigRej= -1.00D+00 NBFU=   724
 ExpMin= 3.51D-02 ExpMax= 5.48D+03 ExpMxC= 8.25D+02 IAcc=3 IRadAn=         5 AccDes= 0.00D+00
 Harris functional with IExCor=  402 and IRadAn=       5 diagonalized for initial guess.
 HarFok:  IExCor=  402 AccDes= 0.00D+00 IRadAn=         5 IDoV= 1 UseB2=F ITyADJ=14
 ICtDFT=  3500011 ScaDFX=  1.000000  1.000000  1.000000  1.000000
 FoFCou: FMM=F IPFlag=           0 FMFlag=      100000 FMFlg1=           0
         NFxFlg=           0 DoJE=T BraDBF=F KetDBF=T FulRan=T
         wScrn=  0.000000 ICntrl=       500 IOpCl=  0 I1Cent=   200000004 NGrid=           0
         NMat0=    1 NMatS0=      1 NMatT0=    0 NMatD0=    1 NMtDS0=    0 NMtDT0=    0
 Symmetry not used in FoFCou.
 Gradient too large for Newton-Raphson -- use scaled steepest descent instead.
     Accept linear search using points  2 and  3.
 Gradient too large for Newton-Raphson -- use scaled steepest descent instead.
     Accept linear search using points  2 and  3.
 Gradient too large for Newton-Raphson -- use scaled steepest descent instead.
 Gradient too large for Newton-Raphson -- use scaled steepest descent instead.
     Accept linear search using points  1 and  2.
 Gradient too large for Newton-Raphson -- use scaled steepest descent instead.
 LinEq1:  Iter=  0 NonCon=     1 RMS=2.20D-05 Max=8.98D-04 NDo=     1
 AX will form     1 AO Fock derivatives at one time.
 LinEq1:  Iter=  1 NonCon=     1 RMS=1.96D-05 Max=5.97D-04 NDo=     1
 LinEq1:  Iter=  2 NonCon=     1 RMS=1.41D-05 Max=5.27D-04 NDo=     1
 LinEq1:  Iter=  3 NonCon=     1 RMS=6.09D-06 Max=1.44D-04 NDo=     1
 LinEq1:  Iter=  4 NonCon=     1 RMS=2.50D-06 Max=1.51D-04 NDo=     1
 LinEq1:  Iter=  5 NonCon=     1 RMS=1.83D-06 Max=1.26D-04 NDo=     1
 LinEq1:  Iter=  6 NonCon=     1 RMS=1.00D-06 Max=8.14D-05 NDo=     1
 LinEq1:  Iter=  7 NonCon=     1 RMS=6.68D-07 Max=3.52D-05 NDo=     1
 LinEq1:  Iter=  8 NonCon=     1 RMS=3.70D-07 Max=1.33D-05 NDo=     1
 LinEq1:  Iter=  9 NonCon=     1 RMS=2.52D-07 Max=9.31D-06 NDo=     1
 LinEq1:  Iter= 10 NonCon=     1 RMS=2.23D-07 Max=9.49D-06 NDo=     1
 LinEq1:  Iter= 11 NonCon=     1 RMS=1.54D-07 Max=9.94D-06 NDo=     1
 LinEq1:  Iter= 12 NonCon=     1 RMS=9.04D-08 Max=3.95D-06 NDo=     1
 LinEq1:  Iter= 13 NonCon=     1 RMS=4.54D-08 Max=3.04D-06 NDo=     1
 LinEq1:  Iter= 14 NonCon=     1 RMS=2.55D-08 Max=1.67D-06 NDo=     1
 LinEq1:  Iter= 15 NonCon=     1 RMS=1.47D-08 Max=5.97D-07 NDo=     1
 LinEq1:  Iter= 16 NonCon=     1 RMS=1.11D-08 Max=8.13D-07 NDo=     1
 LinEq1:  Iter= 17 NonCon=     0 RMS=6.40D-09 Max=2.07D-07 NDo=     1
 Linear equations converged to 3.918D-08 3.918D-07 after    17 iterations.
     Accept linear search using points  1 and  2.
     Minimum is close to point  2 DX= -4.41D-04 DF= -5.00D-12 DXR=  4.42D-04 DFR=  1.94D-07 which will be used.
 LinEq1:  Iter=  0 NonCon=     1 RMS=2.36D-08 Max=1.41D-06 NDo=     1
 LinEq1:  Iter=  1 NonCon=     1 RMS=1.85D-08 Max=6.47D-07 NDo=     1
 LinEq1:  Iter=  2 NonCon=     1 RMS=7.51D-09 Max=3.71D-07 NDo=     1
 LinEq1:  Iter=  3 NonCon=     1 RMS=4.88D-09 Max=1.60D-07 NDo=     1
 LinEq1:  Iter=  4 NonCon=     1 RMS=3.21D-09 Max=1.44D-07 NDo=     1
 LinEq1:  Iter=  5 NonCon=     1 RMS=2.33D-09 Max=1.21D-07 NDo=     1
 LinEq1:  Iter=  6 NonCon=     1 RMS=1.47D-09 Max=5.33D-08 NDo=     1
 LinEq1:  Iter=  7 NonCon=     1 RMS=1.34D-09 Max=4.69D-08 NDo=     1
 LinEq1:  Iter=  8 NonCon=     1 RMS=7.45D-10 Max=5.12D-08 NDo=     1
 LinEq1:  Iter=  9 NonCon=     1 RMS=5.34D-10 Max=4.76D-08 NDo=     1
 LinEq1:  Iter= 10 NonCon=     1 RMS=3.59D-10 Max=1.71D-08 NDo=     1
 LinEq1:  Iter= 11 NonCon=     1 RMS=1.89D-10 Max=5.63D-09 NDo=     1
 LinEq1:  Iter= 12 NonCon=     1 RMS=1.36D-10 Max=4.13D-09 NDo=     1
 LinEq1:  Iter= 13 NonCon=     1 RMS=9.96D-11 Max=4.35D-09 NDo=     1
 LinEq1:  Iter= 14 NonCon=     1 RMS=7.18D-11 Max=2.56D-09 NDo=     1
 LinEq1:  Iter= 15 NonCon=     1 RMS=4.11D-11 Max=1.81D-09 NDo=     1
 LinEq1:  Iter= 16 NonCon=     1 RMS=2.63D-11 Max=1.25D-09 NDo=     1
 LinEq1:  Iter= 17 NonCon=     1 RMS=1.51D-11 Max=8.80D-10 NDo=     1
 LinEq1:  Iter= 18 NonCon=     1 RMS=1.33D-11 Max=6.75D-10 NDo=     1
 LinEq1:  Iter= 19 NonCon=     0 RMS=1.01D-11 Max=2.88D-10 NDo=     1
 Linear equations converged to 4.033D-11 4.033D-10 after    19 iterations.
 SCF Done:  E(RB3LYP) =  -1732.87564594     a.u. after    8 cycles
            Convg  =    0.1441D-08                    54 Fock formations.
              S**2 =  0.0000                  -V/T =  1.9518
 DoSCS=F DFT=T ScalE2(SS,OS)=  1.000000  1.000000
 Range of M.O.s used for correlation:     1   724
 NBasis=   724 NAE=   129 NBE=   129 NFC=     0 NFV=     0
 NROrb=    724 NOA=   129 NOB=   129 NVA=   595 NVB=   595

 **** Warning!!: The largest alpha MO coefficient is  0.60015662D+02

   1 Symmetry operations used in ECPInt.
 ECPInt:  NShTT=   30135 NPrTT=  137153 LenC2=   23480 LenP2D=   63006.
 LDataN:  DoStor=T MaxTD1= 6 Len=  172
 Number of processors reduced to   7 by ecpmxn.
 Symmetrizing basis deriv contribution to polar:
 IMax=3 JMax=2 DiffMx= 0.00D+00
 G2DrvN: will do    60 centers at a time, making    1 passes.
 Calling FoFCou, ICntrl=  3107 FMM=F I1Cent=   0 AccDes= 0.00D+00.
 End of G2Drv F.D. properties file   721 does not exist.
 End of G2Drv F.D. properties file   722 does not exist.
 End of G2Drv F.D. properties file   788 does not exist.
          IDoAtm=11100010000000000000000000000000000000111111111111
          IDoAtm=111111111
          Differentiating once with respect to electric field.
                with respect to dipole field.
          Differentiating once with respect to nuclear coordinates.
 CalDSu exits because no D1Ps are significant.
          There are    78 degrees of freedom in the 1st order CPHF.  IDoFFX=6 NUNeed=     3.
     78 vectors produced by pass  0 Test12= 9.84D-14 1.28D-09 XBig12= 2.87D+02 5.21D+00.
 AX will form    78 AO Fock derivatives at one time.
     78 vectors produced by pass  1 Test12= 9.84D-14 1.28D-09 XBig12= 1.23D+02 3.40D+00.
     78 vectors produced by pass  2 Test12= 9.84D-14 1.28D-09 XBig12= 1.45D+01 6.03D-01.
     78 vectors produced by pass  3 Test12= 9.84D-14 1.28D-09 XBig12= 3.12D-01 6.39D-02.
     78 vectors produced by pass  4 Test12= 9.84D-14 1.28D-09 XBig12= 4.50D-03 9.28D-03.
     78 vectors produced by pass  5 Test12= 9.84D-14 1.28D-09 XBig12= 5.14D-05 1.86D-03.
     49 vectors produced by pass  6 Test12= 9.84D-14 1.28D-09 XBig12= 3.55D-07 1.24D-04.
     18 vectors produced by pass  7 Test12= 9.84D-14 1.28D-09 XBig12= 1.98D-09 4.02D-06.
      8 vectors produced by pass  8 Test12= 9.84D-14 1.28D-09 XBig12= 8.66D-12 3.26D-07.
      3 vectors produced by pass  9 Test12= 9.84D-14 1.28D-09 XBig12= 3.38D-14 3.03D-08.
      2 vectors produced by pass 10 Test12= 9.84D-14 1.28D-09 XBig12= 1.79D-16 2.83D-09.
 InvSVY:  IOpt=1 It=  1 EMax= 1.60D-14
 Solved reduced A of dimension   548 with    78 vectors.
 Isotropic polarizability for W=    0.000000      310.47 Bohr**3.
 End of Minotr F.D. properties file   721 does not exist.
 End of Minotr F.D. properties file   722 does not exist.
 End of Minotr F.D. properties file   788 does not exist.

 **********************************************************************

            Population analysis using the SCF Density.

 **********************************************************************

 Alpha  occ. eigenvalues --  -19.17353 -19.15945 -19.12645 -19.12594 -19.12147
 Alpha  occ. eigenvalues --  -19.12069 -19.12009 -19.11984 -19.11766 -19.07602
 Alpha  occ. eigenvalues --  -14.37988 -14.37682 -10.29170 -10.28526 -10.28524
 Alpha  occ. eigenvalues --  -10.24950 -10.24849 -10.24793 -10.24701 -10.24556
 Alpha  occ. eigenvalues --  -10.24408 -10.24085 -10.23496 -10.23446 -10.23338
 Alpha  occ. eigenvalues --  -10.22284 -10.22225 -10.22133 -10.22106 -10.19820
 Alpha  occ. eigenvalues --  -10.19061  -1.08356  -1.05395  -1.04909  -1.04535
 Alpha  occ. eigenvalues --   -1.04258  -0.97872  -0.97625  -0.97111  -0.96830
 Alpha  occ. eigenvalues --   -0.96503  -0.96211  -0.90272  -0.83294  -0.83144
 Alpha  occ. eigenvalues --   -0.79939  -0.79115  -0.78915  -0.74268  -0.67768
 Alpha  occ. eigenvalues --   -0.66315  -0.66156  -0.65938  -0.65592  -0.65385
 Alpha  occ. eigenvalues --   -0.60957  -0.60341  -0.59795  -0.58753  -0.58590
 Alpha  occ. eigenvalues --   -0.58533  -0.58257  -0.57843  -0.57773  -0.57597
 Alpha  occ. eigenvalues --   -0.57332  -0.57092  -0.56938  -0.56495  -0.55491
 Alpha  occ. eigenvalues --   -0.54971  -0.54133  -0.52219  -0.50902  -0.50702
 Alpha  occ. eigenvalues --   -0.49880  -0.49653  -0.49387  -0.49225  -0.48905
 Alpha  occ. eigenvalues --   -0.47959  -0.47535  -0.46933  -0.46674  -0.45972
 Alpha  occ. eigenvalues --   -0.45727  -0.45699  -0.45113  -0.44722  -0.43638
 Alpha  occ. eigenvalues --   -0.43118  -0.42978  -0.42798  -0.42634  -0.42486
 Alpha  occ. eigenvalues --   -0.41650  -0.40717  -0.40540  -0.39712  -0.39495
 Alpha  occ. eigenvalues --   -0.39101  -0.38989  -0.38802  -0.38599  -0.37885
 Alpha  occ. eigenvalues --   -0.35986  -0.33874  -0.33375  -0.32606  -0.31991
 Alpha  occ. eigenvalues --   -0.31857  -0.31717  -0.31202  -0.29391  -0.29189
 Alpha  occ. eigenvalues --   -0.28982  -0.28877  -0.28608  -0.28397  -0.28263
 Alpha  occ. eigenvalues --   -0.27774  -0.27608  -0.27074  -0.26653  -0.26385
 Alpha  occ. eigenvalues --   -0.26256  -0.25713  -0.24951  -0.24166
 Alpha virt. eigenvalues --   -0.06379  -0.06251  -0.04206  -0.04080  -0.01206
 Alpha virt. eigenvalues --   -0.00688  -0.00386   0.00850   0.01122   0.01248
 Alpha virt. eigenvalues --    0.01712   0.01798   0.02016   0.02343   0.02502
 Alpha virt. eigenvalues --    0.02609   0.02921   0.03006   0.03619   0.03891
 Alpha virt. eigenvalues --    0.03979   0.04127   0.04219   0.04637   0.04940
 Alpha virt. eigenvalues --    0.05230   0.05312   0.05655   0.05862   0.06448
 Alpha virt. eigenvalues --    0.06740   0.07042   0.07195   0.07393   0.07881
 Alpha virt. eigenvalues --    0.08016   0.08261   0.08675   0.08922   0.09377
 Alpha virt. eigenvalues --    0.09590   0.09626   0.09865   0.09968   0.10195
 Alpha virt. eigenvalues --    0.10247   0.10596   0.10890   0.11039   0.11201
 Alpha virt. eigenvalues --    0.11765   0.12019   0.12226   0.12468   0.12807
 Alpha virt. eigenvalues --    0.12969   0.13348   0.13546   0.13645   0.13961
 Alpha virt. eigenvalues --    0.14166   0.14557   0.14869   0.15126   0.15472
 Alpha virt. eigenvalues --    0.15912   0.16023   0.16276   0.16439   0.16581
 Alpha virt. eigenvalues --    0.16835   0.16985   0.17176   0.17639   0.17786
 Alpha virt. eigenvalues --    0.17903   0.18234   0.18381   0.18505   0.18685
 Alpha virt. eigenvalues --    0.19007   0.19265   0.19401   0.19546   0.19862
 Alpha virt. eigenvalues --    0.20123   0.20264   0.20567   0.20703   0.20871
 Alpha virt. eigenvalues --    0.21274   0.21547   0.21767   0.22260   0.22489
 Alpha virt. eigenvalues --    0.22856   0.23049   0.23256   0.23685   0.23893
 Alpha virt. eigenvalues --    0.24098   0.24249   0.24480   0.24633   0.24806
 Alpha virt. eigenvalues --    0.25048   0.25302   0.25454   0.25556   0.25812
 Alpha virt. eigenvalues --    0.26039   0.26437   0.26522   0.26841   0.26900
 Alpha virt. eigenvalues --    0.27261   0.27596   0.27631   0.27890   0.28380
 Alpha virt. eigenvalues --    0.28662   0.28695   0.29215   0.29311   0.29761
 Alpha virt. eigenvalues --    0.30118   0.30211   0.30670   0.31207   0.31376
 Alpha virt. eigenvalues --    0.31529   0.31793   0.31836   0.32146   0.32370
 Alpha virt. eigenvalues --    0.32527   0.32630   0.32837   0.33006   0.33380
 Alpha virt. eigenvalues --    0.33688   0.34157   0.34324   0.34549   0.35031
 Alpha virt. eigenvalues --    0.35508   0.35694   0.36000   0.36397   0.36746
 Alpha virt. eigenvalues --    0.36923   0.37016   0.37489   0.37920   0.38252
 Alpha virt. eigenvalues --    0.38370   0.38922   0.39609   0.39733   0.39948
 Alpha virt. eigenvalues --    0.40047   0.40535   0.41068   0.41379   0.41865
 Alpha virt. eigenvalues --    0.42307   0.42670   0.42921   0.43101   0.43721
 Alpha virt. eigenvalues --    0.43867   0.44095   0.44480   0.45228   0.46125
 Alpha virt. eigenvalues --    0.46512   0.46729   0.47492   0.47720   0.48594
 Alpha virt. eigenvalues --    0.48673   0.48856   0.49627   0.50554   0.50814
 Alpha virt. eigenvalues --    0.51205   0.51943   0.52486   0.53286   0.54358
 Alpha virt. eigenvalues --    0.54630   0.55279   0.56288   0.57014   0.57134
 Alpha virt. eigenvalues --    0.58081   0.58404   0.60143   0.62055   0.63291
 Alpha virt. eigenvalues --    0.63703   0.64491   0.66181   0.66501   0.67274
 Alpha virt. eigenvalues --    0.67747   0.68392   0.68708   0.69527   0.69929
 Alpha virt. eigenvalues --    0.70179   0.70914   0.71311   0.71677   0.72199
 Alpha virt. eigenvalues --    0.72618   0.73028   0.73589   0.73653   0.73851
 Alpha virt. eigenvalues --    0.74171   0.75809   0.76694   0.77051   0.77609
 Alpha virt. eigenvalues --    0.78309   0.78883   0.79817   0.79892   0.80768
 Alpha virt. eigenvalues --    0.81577   0.81618   0.84623   0.85869   0.86707
 Alpha virt. eigenvalues --    0.86913   0.87083   0.87900   0.88130   0.88336
 Alpha virt. eigenvalues --    0.89043   0.89640   0.90296   0.90388   0.90740
 Alpha virt. eigenvalues --    0.91096   0.91298   0.92058   0.92125   0.92413
 Alpha virt. eigenvalues --    0.93002   0.94149   0.94325   0.95741   0.96318
 Alpha virt. eigenvalues --    0.97045   0.98230   0.98498   0.99136   0.99423
 Alpha virt. eigenvalues --    0.99792   1.00772   1.01257   1.01339   1.02572
 Alpha virt. eigenvalues --    1.02989   1.03176   1.04215   1.04780   1.05450
 Alpha virt. eigenvalues --    1.06289   1.07383   1.07803   1.08006   1.09163
 Alpha virt. eigenvalues --    1.10006   1.10531   1.11656   1.13029   1.13625
 Alpha virt. eigenvalues --    1.13912   1.14783   1.15003   1.15272   1.16078
 Alpha virt. eigenvalues --    1.16675   1.17356   1.17717   1.18251   1.18597
 Alpha virt. eigenvalues --    1.18654   1.19217   1.19543   1.20208   1.20646
 Alpha virt. eigenvalues --    1.21234   1.22226   1.22685   1.23331   1.23955
 Alpha virt. eigenvalues --    1.24509   1.25165   1.25520   1.26047   1.26503
 Alpha virt. eigenvalues --    1.26701   1.27369   1.28125   1.28387   1.29050
 Alpha virt. eigenvalues --    1.29997   1.31075   1.31799   1.32422   1.32972
 Alpha virt. eigenvalues --    1.33370   1.34138   1.34614   1.35624   1.36438
 Alpha virt. eigenvalues --    1.36590   1.36794   1.36816   1.37138   1.37774
 Alpha virt. eigenvalues --    1.38302   1.38448   1.39029   1.39447   1.39770
 Alpha virt. eigenvalues --    1.40356   1.41076   1.41653   1.42188   1.42670
 Alpha virt. eigenvalues --    1.43134   1.43657   1.44932   1.45199   1.45816
 Alpha virt. eigenvalues --    1.46111   1.46314   1.46972   1.47619   1.47741
 Alpha virt. eigenvalues --    1.48914   1.49711   1.50134   1.51227   1.51373
 Alpha virt. eigenvalues --    1.52140   1.53624   1.53914   1.55562   1.56844
 Alpha virt. eigenvalues --    1.57219   1.58121   1.58369   1.59622   1.60555
 Alpha virt. eigenvalues --    1.60826   1.62283   1.62941   1.63742   1.64305
 Alpha virt. eigenvalues --    1.65141   1.65774   1.65978   1.67438   1.68567
 Alpha virt. eigenvalues --    1.70079   1.70269   1.71558   1.72169   1.72409
 Alpha virt. eigenvalues --    1.73987   1.75572   1.76514   1.77101   1.78256
 Alpha virt. eigenvalues --    1.79385   1.80060   1.80314   1.80694   1.81646
 Alpha virt. eigenvalues --    1.82449   1.83380   1.83535   1.83758   1.84283
 Alpha virt. eigenvalues --    1.84795   1.85655   1.86304   1.86650   1.87744
 Alpha virt. eigenvalues --    1.87920   1.88303   1.88659   1.89761   1.90203
 Alpha virt. eigenvalues --    1.90667   1.91346   1.91790   1.93102   1.93623
 Alpha virt. eigenvalues --    1.93905   1.94080   1.94738   1.94979   1.95025
 Alpha virt. eigenvalues --    1.95171   1.95641   1.95956   1.96302   1.96617
 Alpha virt. eigenvalues --    1.97474   1.97657   1.97939   1.98683   1.98810
 Alpha virt. eigenvalues --    1.99411   2.00032   2.00202   2.00562   2.01211
 Alpha virt. eigenvalues --    2.02128   2.02518   2.02674   2.02913   2.03365
 Alpha virt. eigenvalues --    2.04277   2.05262   2.05920   2.06488   2.08125
 Alpha virt. eigenvalues --    2.09023   2.10618   2.11023   2.11798   2.12024
 Alpha virt. eigenvalues --    2.12817   2.13032   2.13587   2.13919   2.14593
 Alpha virt. eigenvalues --    2.15123   2.15304   2.15864   2.20352   2.20981
 Alpha virt. eigenvalues --    2.21387   2.22325   2.23315   2.23835   2.24733
 Alpha virt. eigenvalues --    2.25864   2.26333   2.26705   2.27149   2.28147
 Alpha virt. eigenvalues --    2.28336   2.28671   2.28797   2.29442   2.29597
 Alpha virt. eigenvalues --    2.29702   2.31191   2.32505   2.33058   2.34875
 Alpha virt. eigenvalues --    2.35307   2.35613   2.35690   2.36038   2.36227
 Alpha virt. eigenvalues --    2.36613   2.36866   2.38278   2.38827   2.39013
 Alpha virt. eigenvalues --    2.39550   2.40376   2.44397   2.45697   2.45856
 Alpha virt. eigenvalues --    2.46447   2.48284   2.48516   2.49718   2.51107
 Alpha virt. eigenvalues --    2.51122   2.51382   2.51565   2.52250   2.52491
 Alpha virt. eigenvalues --    2.52908   2.53220   2.53875   2.54278   2.55257
 Alpha virt. eigenvalues --    2.57047   2.57340   2.57527   2.58368   2.58799
 Alpha virt. eigenvalues --    2.59045   2.59383   2.61931   2.64375   2.65602
 Alpha virt. eigenvalues --    2.65613   2.65885   2.66003   2.68376   2.68829
 Alpha virt. eigenvalues --    2.69097   2.69772   2.70000   2.70347   2.71158
 Alpha virt. eigenvalues --    2.71632   2.71913   2.72020   2.72173   2.72622
 Alpha virt. eigenvalues --    2.73097   2.74376   2.75262   2.77204   2.77920
 Alpha virt. eigenvalues --    2.78360   2.78575   2.80653   2.82009   2.82419
 Alpha virt. eigenvalues --    2.82593   2.83579   2.84316   2.84592   2.85836
 Alpha virt. eigenvalues --    2.85913   2.86649   2.91220   2.93263   2.96410
 Alpha virt. eigenvalues --    2.97226   2.98130   3.01571   3.01779   3.02440
 Alpha virt. eigenvalues --    3.03319   3.04276   3.05287   3.06354   3.07515
 Alpha virt. eigenvalues --    3.08456   3.08722   3.09472   3.10627   3.13050
 Alpha virt. eigenvalues --    3.17155   3.17439   3.18593   3.24719   3.25112
 Alpha virt. eigenvalues --    3.25475   3.25782   3.26515   3.26755   3.27230
 Alpha virt. eigenvalues --    3.30837   3.31141   3.31346   3.32770   3.38056
 Alpha virt. eigenvalues --    3.41403   3.42014   3.42402   3.44797   3.46668
 Alpha virt. eigenvalues --    3.47586   3.48330   3.49059   3.50801   3.54364
 Alpha virt. eigenvalues --    3.56154   3.56265   3.56706   3.68598   3.69192
 Alpha virt. eigenvalues --    3.91377   3.91547   3.93067  11.51347  11.69096
          Condensed to atoms (all electrons):
 Mulliken charges:
               1
     1  Zn   0.849035
     2  O   -0.813387
     3  O   -0.973916
     4  O   -0.485556
     5  O   -0.462764
     6  C    0.395382
     7  Zn   0.542230
     8  O   -0.501267
     9  O   -0.472226
    10  O   -0.433213
    11  O   -0.480453
    12  C    0.533927
    13  C    0.498559
    14  H    0.079293
    15  H    0.084881
    16  H    0.089088
    17  C   -0.282847
    18  C    0.090128
    19  C   -0.469344
    20  C    0.067450
    21  C   -0.197555
    22  N    0.170194
    23  H    0.143273
    24  H    0.196130
    25  H    0.140610
    26  H    0.142188
    27  H    0.187666
    28  C   -0.287690
    29  C    0.086017
    30  C   -0.553260
    31  C    0.105558
    32  C   -0.293866
    33  N    0.174398
    34  H    0.144314
    35  H    0.187091
    36  H    0.142783
    37  H    0.143975
    38  H    0.192379
    39  H    0.544326
    40  H    0.416127
    41  H    0.371298
    42  C   -0.295641
    43  C    0.008050
    44  C   -0.090268
    45  O   -0.306523
    46  C   -0.232103
    47  C   -0.145181
    48  C    0.019584
    49  O   -0.326902
    50  H    0.137020
    51  H    0.133744
    52  H    0.137405
    53  H    0.124735
    54  H    0.125544
    55  H    0.110135
    56  H    0.163627
    57  H    0.147526
    58  H    0.140697
    59  H    0.137595
 Sum of Mulliken charges =   0.00000
 Mulliken charges with hydrogens summed into heavy atoms:
               1
     1  Zn   0.849035
     2  O    0.102237
     3  O   -0.557789
     4  O   -0.485556
     5  O   -0.462764
     6  C    0.474674
     7  Zn   0.542230
     8  O   -0.501267
     9  O   -0.472226
    10  O   -0.433213
    11  O   -0.480453
    12  C    0.618808
    13  C    0.587647
    17  C   -0.086718
    18  C    0.230738
    19  C   -0.326070
    20  C    0.209639
    21  C   -0.009889
    22  N    0.170194
    28  C   -0.100599
    29  C    0.228801
    30  C   -0.408945
    31  C    0.249533
    32  C   -0.101487
    33  N    0.174398
    42  C   -0.024877
    43  C    0.145455
    44  C    0.160011
    45  O   -0.306523
    46  C    0.041658
    47  C    0.002345
    48  C    0.297876
    49  O   -0.326902
 Electronic spatial extent (au):  <R**2>=          20811.9070
 Charge=              0.0000 electrons
 Dipole moment (field-independent basis, Debye):
    X=              0.5306    Y=             -0.1264    Z=              2.4741  Tot=              2.5335
 Quadrupole moment (field-independent basis, Debye-Ang):
   XX=           -149.2676   YY=           -172.8344   ZZ=           -206.5218
   XY=             37.1517   XZ=              2.3240   YZ=              1.9273
 Traceless Quadrupole moment (field-independent basis, Debye-Ang):
   XX=             26.9403   YY=              3.3735   ZZ=            -30.3139
   XY=             37.1517   XZ=              2.3240   YZ=              1.9273
 Octapole moment (field-independent basis, Debye-Ang**2):
  XXX=             34.0591  YYY=           -458.8498  ZZZ=           -553.2107  XYY=            105.6705
  XXY=           -279.7939  XXZ=           -215.6206  XZZ=             38.4723  YZZ=           -172.8840
  YYZ=           -142.1427  XYZ=             12.7840
 Hexadecapole moment (field-independent basis, Debye-Ang**3):
 XXXX=         -11505.8116 YYYY=          -6357.0500 ZZZZ=          -7158.8498 XXXY=          -1088.8816
 XXXZ=          -1998.1046 YYYX=          -1820.7277 YYYZ=           -715.8208 ZZZX=          -2120.2422
 ZZZY=           -578.8604 XXYY=          -2802.7950 XXZZ=          -3401.7014 YYZZ=          -2376.7024
 XXYZ=           -311.6094 YYXZ=           -756.2082 ZZXY=           -676.5474
 N-N= 3.850481639222D+03 E-N=-1.191908320770D+04  KE= 1.820602217026D+03
  Exact polarizability:     338.130      51.655     302.411      13.315      10.653     290.872
 Approx polarizability:     468.917      54.600     431.152      -6.200      12.093     418.536
   1 Symmetry operations used in ECPInt.
 ECPInt:  NShTT=   30135 NPrTT=  137153 LenC2=   23480 LenP2D=   63006.
 LDataN:  DoStor=T MaxTD1= 7 Len=  274
 Calling FoFJK, ICntrl=    100127 FMM=F ISym2X=0 I1Cent= 0 IOpClX= 0 NMat=1 NMatS=1 NMatT=0.
 -------------------------------------------------------------------
 Center     Atomic                   Forces (Hartrees/Bohr)
 Number     Number              X              Y              Z
 -------------------------------------------------------------------
      1       30           0.000000090    0.000000009    0.000000056
      2        8          -0.000000135    0.000000717   -0.000000524
      3        8           0.000000347   -0.000000353    0.000000419
      4        8          -0.000000000   -0.000000000   -0.000000000
      5        8          -0.000000000   -0.000000000   -0.000000000
      6        6          -0.000000000   -0.000000000   -0.000000000
      7       30          -0.000000039   -0.000000002   -0.000000006
      8        8          -0.000000000   -0.000000000   -0.000000000
      9        8          -0.000000000   -0.000000000   -0.000000000
     10        8          -0.000000000   -0.000000000   -0.000000000
     11        8          -0.000000000   -0.000000000   -0.000000000
     12        6          -0.000000000   -0.000000000   -0.000000000
     13        6          -0.000000000   -0.000000000   -0.000000000
     14        1          -0.000000000   -0.000000000   -0.000000000
     15        1          -0.000000000   -0.000000000   -0.000000000
     16        1          -0.000000000   -0.000000000   -0.000000000
     17        6          -0.000000000   -0.000000000   -0.000000000
     18        6          -0.000000000   -0.000000000   -0.000000000
     19        6          -0.000000000   -0.000000000   -0.000000000
     20        6          -0.000000000   -0.000000000   -0.000000000
     21        6          -0.000000000   -0.000000000   -0.000000000
     22        7          -0.000000000   -0.000000000   -0.000000000
     23        1          -0.000000000   -0.000000000   -0.000000000
     24        1          -0.000000000   -0.000000000   -0.000000000
     25        1          -0.000000000   -0.000000000   -0.000000000
     26        1          -0.000000000   -0.000000000   -0.000000000
     27        1          -0.000000000   -0.000000000   -0.000000000
     28        6          -0.000000000   -0.000000000   -0.000000000
     29        6          -0.000000000   -0.000000000   -0.000000000
     30        6          -0.000000000   -0.000000000   -0.000000000
     31        6          -0.000000000   -0.000000000   -0.000000000
     32        6          -0.000000000   -0.000000000   -0.000000000
     33        7          -0.000000000   -0.000000000   -0.000000000
     34        1          -0.000000000   -0.000000000   -0.000000000
     35        1          -0.000000000   -0.000000000   -0.000000000
     36        1          -0.000000000   -0.000000000   -0.000000000
     37        1          -0.000000000   -0.000000000   -0.000000000
     38        1          -0.000000000   -0.000000000   -0.000000000
     39        1          -0.000000044    0.000000076   -0.000000029
     40        1          -0.000000298    0.000000278   -0.000000419
     41        1           0.000000145   -0.000000752    0.000000530
     42        6          -0.000000619    0.000000356    0.000000215
     43        6           0.000000679   -0.000000558   -0.000000780
     44        6          -0.000000009   -0.000000054    0.000000262
     45        8          -0.000000082    0.000000038   -0.000000006
     46        6          -0.000000077   -0.000000246   -0.000000056
     47        6          -0.000000379    0.000000005    0.000000664
     48        6          -0.000000107    0.000000321   -0.000000246
     49        8           0.000000208   -0.000000143   -0.000000024
     50        1           0.000000204    0.000000008    0.000000307
     51        1           0.000000049    0.000000006    0.000000054
     52        1          -0.000000336    0.000000158   -0.000000008
     53        1          -0.000000006    0.000000101    0.000000005
     54        1           0.000000087   -0.000000019   -0.000000077
     55        1           0.000000064    0.000000080   -0.000000026
     56        1           0.000000132   -0.000000090    0.000000037
     57        1           0.000000211    0.000000273   -0.000000373
     58        1           0.000000015   -0.000000206    0.000000041
     59        1          -0.000000031   -0.000000034    0.000000008
 -------------------------------------------------------------------
 Cartesian Forces:  Max     0.000000780 RMS     0.000000184

 GradGradGradGradGradGradGradGradGradGradGradGradGradGradGradGradGradGrad
 Berny optimization.
 Search for a local minimum.
 Step number   1 out of a maximum of  187
 All quantities printed in internal units (Hartrees-Bohrs-Radians)
 Second derivative matrix not updated -- analytic derivatives used.
 ITU=  0
     Eigenvalues ---    0.00001   0.00001   0.00004   0.00008   0.00016
     Eigenvalues ---    0.00037   0.00054   0.00061   0.00121   0.00200
     Eigenvalues ---    0.00264   0.00278   0.00329   0.00610   0.00988
     Eigenvalues ---    0.01076   0.01234   0.01299   0.01531   0.01858
     Eigenvalues ---    0.02071   0.02355   0.02768   0.03577   0.03803
     Eigenvalues ---    0.04300   0.04350   0.04675   0.05838   0.06057
     Eigenvalues ---    0.06525   0.06743   0.07456   0.07755   0.08642
     Eigenvalues ---    0.09805   0.09828   0.10268   0.10407   0.11600
     Eigenvalues ---    0.12587   0.12953   0.13207   0.13663   0.14306
     Eigenvalues ---    0.14829   0.15327   0.15747   0.16900   0.18057
     Eigenvalues ---    0.19330   0.19480   0.21190   0.22102   0.27594
     Eigenvalues ---    0.29848   0.34487   0.36518   0.42327   0.47773
     Eigenvalues ---    0.52377   0.60085   0.64277   0.69708   0.73198
     Eigenvalues ---    0.79909   0.83484   0.86324   0.89982   0.95996
     Eigenvalues ---    0.98479   1.04494   1.08746   1.09097   1.46738
 RFO step:  Lambda= 0.00000000D+00 EMin= 5.49861426D-06
 Linear search not attempted -- first point.
 Variable       Old X    -DE/DX   Delta X   Delta X   Delta X     New X
                                 (Linear)    (Quad)   (Total)
    X1       -4.98814   0.00000   0.00000   0.00000   0.00000  -4.98814
    Y1       -0.17680   0.00000   0.00000   0.00000   0.00000  -0.17680
    Z1       -0.29531   0.00000   0.00000   0.00000   0.00000  -0.29531
    X2       -2.09469  -0.00000   0.00000  -0.00000  -0.00000  -2.09469
    Y2       -2.43523   0.00000   0.00000   0.00000   0.00000  -2.43523
    Z2       -1.90374  -0.00000   0.00000  -0.00000  -0.00000  -1.90374
    X3        1.58134   0.00000   0.00000   0.00000   0.00000   1.58134
    Y3        0.35710  -0.00000   0.00000  -0.00000  -0.00000   0.35710
    Z3       -1.32870   0.00000   0.00000   0.00000   0.00000  -1.32870
    X4       -3.64240  -0.00000   0.00000   0.00000   0.00000  -3.64240
    Y4       -1.19733  -0.00000   0.00000   0.00000   0.00000  -1.19733
    Z4        3.23707  -0.00000   0.00000   0.00000   0.00000   3.23707
    X5       -0.69956  -0.00000   0.00000   0.00000   0.00000  -0.69956
    Y5        1.89746  -0.00000   0.00000   0.00000   0.00000   1.89746
    Z5        3.59825  -0.00000   0.00000   0.00000   0.00000   3.59825
    X6       -2.00605  -0.00000   0.00000   0.00000   0.00000  -2.00605
    Y6        0.10768  -0.00000   0.00000   0.00000   0.00000   0.10768
    Z6        4.42400  -0.00000   0.00000   0.00000   0.00000   4.42400
    X7       -0.36824  -0.00000   0.00000  -0.00000  -0.00000  -0.36824
    Y7        3.42850  -0.00000   0.00000  -0.00000  -0.00000   3.42850
    Z7       -0.24331  -0.00000   0.00000  -0.00000  -0.00000  -0.24331
    X8       -3.05974  -0.00000   0.00000   0.00000   0.00000  -3.05974
    Y8        6.04561  -0.00000   0.00000   0.00000   0.00000   6.04561
    Z8        1.01488  -0.00000   0.00000   0.00000   0.00000   1.01488
    X9       -6.27885  -0.00000   0.00000   0.00000   0.00000  -6.27885
    Y9        3.23825  -0.00000   0.00000   0.00000   0.00000   3.23825
    Z9        1.35186  -0.00000   0.00000   0.00000   0.00000   1.35186
   X10       -2.03765  -0.00000   0.00000   0.00000   0.00000  -2.03765
   Y10        3.72549  -0.00000   0.00000   0.00000   0.00000   3.72549
   Z10       -3.86813  -0.00000   0.00000   0.00000   0.00000  -3.86813
   X11       -5.61943  -0.00000   0.00000   0.00000   0.00000  -5.61943
   Y11        1.38400  -0.00000   0.00000   0.00000   0.00000   1.38400
   Z11       -3.77543  -0.00000   0.00000   0.00000   0.00000  -3.77543
   X12       -5.28537  -0.00000   0.00000   0.00000   0.00000  -5.28537
   Y12        5.38818  -0.00000   0.00000   0.00000   0.00000   5.38818
   Z12        1.57814  -0.00000   0.00000   0.00000   0.00000   1.57814
   X13       -4.03728  -0.00000   0.00000   0.00000   0.00000  -4.03728
   Y13        2.85839  -0.00000   0.00000   0.00000   0.00000   2.85839
   Z13       -4.80355  -0.00000   0.00000   0.00000   0.00000  -4.80355
   X14       -1.70451  -0.00000   0.00000   0.00000   0.00000  -1.70451
   Y14       -0.44040  -0.00000   0.00000   0.00000   0.00000  -0.44040
   Z14        6.41934  -0.00000   0.00000   0.00000   0.00000   6.41934
   X15       -6.50705  -0.00000   0.00000   0.00000   0.00000  -6.50705
   Y15        6.88639  -0.00000   0.00000   0.00000   0.00000   6.88639
   Z15        2.36684  -0.00000   0.00000   0.00000   0.00000   2.36684
   X16       -4.48480  -0.00000   0.00000   0.00000   0.00000  -4.48480
   Y16        3.44693  -0.00000   0.00000   0.00000   0.00000   3.44693
   Z16       -6.75529  -0.00000   0.00000   0.00000   0.00000  -6.75529
   X17        4.86416  -0.00000   0.00000   0.00000   0.00000   4.86416
   Y17        5.36780  -0.00000   0.00000   0.00000   0.00000   5.36780
   Z17       -1.03451  -0.00000   0.00000   0.00000   0.00000  -1.03451
   X18        6.96125  -0.00000   0.00000   0.00000   0.00000   6.96125
   Y18        6.95975  -0.00000   0.00000   0.00000   0.00000   6.95975
   Z18       -1.00863  -0.00000   0.00000   0.00000   0.00000  -1.00863
   X19        6.69364  -0.00000   0.00000   0.00000   0.00000   6.69364
   Y19        9.39787  -0.00000   0.00000   0.00000   0.00000   9.39787
   Z19       -0.03971  -0.00000   0.00000   0.00000   0.00000  -0.03971
   X20        4.33573  -0.00000   0.00000   0.00000   0.00000   4.33573
   Y20       10.16427  -0.00000   0.00000   0.00000   0.00000  10.16427
   Z20        0.86182  -0.00000   0.00000   0.00000   0.00000   0.86182
   X21        2.32924  -0.00000   0.00000   0.00000   0.00000   2.32924
   Y21        8.46211  -0.00000   0.00000   0.00000   0.00000   8.46211
   Z21        0.77034  -0.00000   0.00000   0.00000   0.00000   0.77034
   X22        2.59774  -0.00000   0.00000   0.00000   0.00000   2.59774
   Y22        6.11124  -0.00000   0.00000   0.00000   0.00000   6.11124
   Z22       -0.15501  -0.00000   0.00000   0.00000   0.00000  -0.15501
   X23        8.29485  -0.00000   0.00000   0.00000   0.00000   8.29485
   Y23       10.68116  -0.00000   0.00000   0.00000   0.00000  10.68116
   Z23        0.01083  -0.00000   0.00000   0.00000   0.00000   0.01083
   X24        4.93694  -0.00000   0.00000   0.00000   0.00000   4.93694
   Y24        3.44651  -0.00000   0.00000   0.00000   0.00000   3.44651
   Z24       -1.75436  -0.00000   0.00000   0.00000   0.00000  -1.75436
   X25        8.75725  -0.00000   0.00000   0.00000   0.00000   8.75725
   Y25        6.28817  -0.00000   0.00000   0.00000   0.00000   6.28817
   Z25       -1.73336  -0.00000   0.00000   0.00000   0.00000  -1.73336
   X26        4.04462  -0.00000   0.00000   0.00000   0.00000   4.04462
   Y26       12.04396  -0.00000   0.00000   0.00000   0.00000  12.04396
   Z26        1.62641  -0.00000   0.00000   0.00000   0.00000   1.62641
   X27        0.44906  -0.00000   0.00000   0.00000   0.00000   0.44906
   Y27        8.94145  -0.00000   0.00000   0.00000   0.00000   8.94145
   Z27        1.43499  -0.00000   0.00000   0.00000   0.00000   1.43499
   X28       -8.88744  -0.00000   0.00000   0.00000   0.00000  -8.88744
   Y28       -3.73409  -0.00000   0.00000   0.00000   0.00000  -3.73409
   Z28        1.91180  -0.00000   0.00000   0.00000   0.00000   1.91180
   X29      -11.06321  -0.00000   0.00000   0.00000   0.00000 -11.06321
   Y29       -5.20966  -0.00000   0.00000   0.00000   0.00000  -5.20966
   Z29        2.04382  -0.00000   0.00000   0.00000   0.00000   2.04382
   X30      -12.67891  -0.00000   0.00000   0.00000   0.00000 -12.67891
   Y30       -5.28060  -0.00000   0.00000   0.00000   0.00000  -5.28060
   Z30       -0.03994  -0.00000   0.00000   0.00000   0.00000  -0.03994
   X31      -12.06299  -0.00000   0.00000   0.00000   0.00000 -12.06299
   Y31       -3.87147  -0.00000   0.00000   0.00000   0.00000  -3.87147
   Z31       -2.18250  -0.00000   0.00000   0.00000   0.00000  -2.18250
   X32       -9.85413  -0.00000   0.00000   0.00000   0.00000  -9.85413
   Y32       -2.43913  -0.00000   0.00000   0.00000   0.00000  -2.43913
   Z32       -2.16895  -0.00000   0.00000   0.00000   0.00000  -2.16895
   X33       -8.29896  -0.00000   0.00000   0.00000   0.00000  -8.29896
   Y33       -2.38018  -0.00000   0.00000   0.00000   0.00000  -2.38018
   Z33       -0.15806  -0.00000   0.00000   0.00000   0.00000  -0.15806
   X34      -14.38922  -0.00000   0.00000   0.00000   0.00000 -14.38922
   Y34       -6.41413  -0.00000   0.00000   0.00000   0.00000  -6.41413
   Z34        0.00582  -0.00000   0.00000   0.00000   0.00000   0.00582
   X35       -7.55587  -0.00000   0.00000   0.00000   0.00000  -7.55587
   Y35       -3.59861  -0.00000   0.00000   0.00000   0.00000  -3.59861
   Z35        3.46658  -0.00000   0.00000   0.00000   0.00000   3.46658
   X36      -11.47068  -0.00000   0.00000   0.00000   0.00000 -11.47068
   Y36       -6.27359  -0.00000   0.00000   0.00000   0.00000  -6.27359
   Z36        3.74785  -0.00000   0.00000   0.00000   0.00000   3.74785
   X37      -13.26604  -0.00000   0.00000   0.00000   0.00000 -13.26604
   Y37       -3.87031  -0.00000   0.00000   0.00000   0.00000  -3.87031
   Z37       -3.84209  -0.00000   0.00000   0.00000   0.00000  -3.84209
   X38       -9.27307  -0.00000   0.00000   0.00000   0.00000  -9.27307
   Y38       -1.29776  -0.00000   0.00000   0.00000   0.00000  -1.29776
   Z38       -3.77144  -0.00000   0.00000   0.00000   0.00000  -3.77144
   X39       -0.35436  -0.00000   0.00000  -0.00000  -0.00000  -0.35436
   Y39       -1.31798   0.00000   0.00000   0.00000   0.00000  -1.31798
   Z39       -1.79584  -0.00000   0.00000  -0.00000  -0.00000  -1.79585
   X40        2.58019  -0.00000   0.00000  -0.00000  -0.00000   2.58019
   Y40       -0.41045   0.00000   0.00000  -0.00000  -0.00000  -0.41045
   Z40        0.00189  -0.00000   0.00000   0.00000   0.00000   0.00189
   X41       -1.77583   0.00000   0.00000   0.00000   0.00000  -1.77583
   Y41       -3.90134  -0.00000   0.00000  -0.00000  -0.00000  -3.90134
   Z41       -0.86380   0.00000   0.00000   0.00000   0.00000  -0.86380
   X42        7.22733  -0.00000   0.00000   0.00012   0.00012   7.22744
   Y42        5.40213   0.00000   0.00000   0.00002   0.00002   5.40215
   Z42       13.53344   0.00000   0.00000  -0.00007  -0.00007  13.53338
   X43        8.10581   0.00000   0.00000   0.00009   0.00009   8.10590
   Y43        4.29062  -0.00000   0.00000   0.00001   0.00001   4.29063
   Z43       11.44513  -0.00000   0.00000  -0.00008  -0.00008  11.44506
   X44        6.65359  -0.00000   0.00000   0.00005   0.00005   6.65364
   Y44        4.07654  -0.00000   0.00000   0.00000   0.00000   4.07654
   Z44        9.02093   0.00000   0.00000  -0.00005  -0.00005   9.02088
   X45        6.67530  -0.00000   0.00000   0.00004   0.00004   6.67534
   Y45        1.50744   0.00000   0.00000  -0.00000  -0.00000   1.50744
   Z45        8.21409  -0.00000   0.00000  -0.00004  -0.00004   8.21405
   X46        5.44460  -0.00000   0.00000   0.00001   0.00001   5.44461
   Y46        1.14137  -0.00000   0.00000  -0.00001  -0.00001   1.14136
   Z46        5.85451  -0.00000   0.00000  -0.00003  -0.00003   5.85449
   X47        5.34711  -0.00000   0.00000   0.00001   0.00001   5.34712
   Y47       -1.66707   0.00000   0.00000  -0.00001  -0.00001  -1.66708
   Z47        5.36130   0.00000   0.00000  -0.00001  -0.00001   5.36129
   X48        7.18411  -0.00000   0.00000  -0.00001  -0.00001   7.18409
   Y48       -2.94025   0.00000   0.00000  -0.00002  -0.00002  -2.94026
   Z48        3.71293  -0.00000   0.00000  -0.00003  -0.00003   3.71290
   X49        4.66871   0.00000   0.00000  -0.00002  -0.00002   4.66868
   Y49       -2.38515  -0.00000   0.00000  -0.00002  -0.00002  -2.38517
   Z49        2.83027  -0.00000   0.00000  -0.00000  -0.00000   2.83027
   X50        8.37402   0.00000   0.00000   0.00014   0.00014   8.37416
   Y50        5.56552   0.00000   0.00000   0.00003   0.00003   5.56555
   Z50       15.22790   0.00000   0.00000  -0.00008  -0.00008  15.22782
   X51        5.33089   0.00000   0.00000   0.00012   0.00012   5.33101
   Y51        6.19148   0.00000   0.00000   0.00002   0.00002   6.19150
   Z51       13.61913   0.00000   0.00000  -0.00004  -0.00004  13.61909
   X52       10.00322  -0.00000   0.00000   0.00009   0.00009  10.00331
   Y52        3.49252   0.00000   0.00000   0.00001   0.00001   3.49253
   Z52       11.41276  -0.00000   0.00000  -0.00010  -0.00010  11.41266
   X53        7.54433  -0.00000   0.00000   0.00003   0.00003   7.54436
   Y53        5.26358   0.00000   0.00000  -0.00000  -0.00000   5.26357
   Z53        7.55245   0.00000   0.00000  -0.00007  -0.00007   7.55238
   X54        4.69887   0.00000   0.00000   0.00006   0.00006   4.69893
   Y54        4.74537  -0.00000   0.00000   0.00000   0.00000   4.74538
   Z54        9.26868  -0.00000   0.00000  -0.00003  -0.00003   9.26865
   X55        6.48257   0.00000   0.00000  -0.00001  -0.00001   6.48256
   Y55        2.09246   0.00000   0.00000  -0.00002  -0.00002   2.09244
   Z55        4.31907  -0.00000   0.00000  -0.00004  -0.00004   4.31903
   X56        3.51199   0.00000   0.00000   0.00001   0.00001   3.51201
   Y56        1.90558  -0.00000   0.00000  -0.00001  -0.00001   1.90557
   Z56        5.88836   0.00000   0.00000  -0.00000  -0.00000   5.88836
   X57        4.42182   0.00000   0.00000   0.00003   0.00003   4.42185
   Y57       -2.77658   0.00000   0.00000  -0.00001  -0.00001  -2.77659
   Z57        6.83070  -0.00000   0.00000   0.00000   0.00000   6.83070
   X58        7.58304   0.00000   0.00000  -0.00001  -0.00001   7.58303
   Y58       -4.94195  -0.00000   0.00000  -0.00002  -0.00002  -4.94197
   Z58        3.97144   0.00000   0.00000  -0.00003  -0.00003   3.97141
   X59        8.67797  -0.00000   0.00000  -0.00002  -0.00002   8.67795
   Y59       -1.83633  -0.00000   0.00000  -0.00002  -0.00002  -1.83635
   Z59        2.82549   0.00000   0.00000  -0.00005  -0.00005   2.82544
         Item               Value     Threshold  Converged?
 Maximum Force            0.000001     0.000015     YES
 RMS     Force            0.000000     0.000010     YES
 Maximum Displacement     0.000141     0.000060     NO 
 RMS     Displacement     0.000027     0.000040     YES
 Predicted change in Energy=-3.798750D-12
 GradGradGradGradGradGradGradGradGradGradGradGradGradGradGradGradGradGrad

 Symmetry turned off by external request.
 Stoichiometry    C19H26N2O10Zn2
 Framework group  C1[X(C19H26N2O10Zn2)]
 Deg. of freedom   171
 Full point group                 C1      NOp   1
                          Input orientation:                          
 ---------------------------------------------------------------------
 Center     Atomic      Atomic             Coordinates (Angstroms)
 Number     Number       Type             X           Y           Z
 ---------------------------------------------------------------------
      1         30           0       -2.639609   -0.093557   -0.156270
      2          8           0       -1.108461   -1.288667   -1.007416
      3          8           0        0.836810    0.188969   -0.703116
      4          8           0       -1.927476   -0.633601    1.712983
      5          8           0       -0.370193    1.004094    1.904112
      6          6           0       -1.061555    0.056982    2.341081
      7         30           0       -0.194864    1.814282   -0.128755
      8          8           0       -1.619144    3.199200    0.537049
      9          8           0       -3.322624    1.713610    0.715371
     10          8           0       -1.078277    1.971447   -2.046925
     11          8           0       -2.973673    0.732379   -1.997873
     12          6           0       -2.796899    2.851304    0.835116
     13          6           0       -2.136438    1.512597   -2.541928
     14          1           0       -0.901987   -0.233052    3.396966
     15          1           0       -3.443381    3.644119    1.252478
     16          1           0       -2.373254    1.824036   -3.574746
     17          6           0        2.574003    2.840520   -0.547438
     18          6           0        3.683734    3.682942   -0.533743
     19          6           0        3.542121    4.973140   -0.021012
     20          6           0        2.294370    5.378698    0.456058
     21          6           0        1.232582    4.477957    0.407646
     22          7           0        1.374664    3.233930   -0.082030
     23          1           0        4.389444    5.652229    0.005731
     24          1           0        2.612514    1.823815   -0.928366
     25          1           0        4.634137    3.327555   -0.917253
     26          1           0        2.140319    6.373388    0.860660
     27          1           0        0.237631    4.731613    0.759365
     28          6           0       -4.703033   -1.975997    1.011679
     29          6           0       -5.854396   -2.756831    1.081541
     30          6           0       -6.709391   -2.794372   -0.021137
     31          6           0       -6.383457   -2.048694   -1.154930
     32          6           0       -5.214580   -1.290733   -1.147760
     33          7           0       -4.391619   -1.259539   -0.083644
     34          1           0       -7.614448   -3.394209    0.003079
     35          1           0       -3.998396   -1.904305    1.834434
     36          1           0       -6.070025   -3.319841    1.983275
     37          1           0       -7.020085   -2.048080   -2.033144
     38          1           0       -4.907096   -0.686746   -1.995762
     39          1           0       -0.187518   -0.697443   -0.950321
     40          1           0        1.365377   -0.217202    0.001000
     41          1           0       -0.939727   -2.064499   -0.457102
     42          6           0        3.824598    2.858697    7.161555
     43          6           0        4.289458    2.270505    6.056463
     44          6           0        3.520956    2.157211    4.773645
     45          8           0        3.532439    0.797701    4.346687
     46          6           0        2.881166    0.603983    3.098061
     47          6           0        2.829573   -0.882182    2.837073
     48          6           0        3.801659   -1.555920    1.964784
     49          8           0        2.470562   -1.262178    1.497715
     50          1           0        4.431414    2.945163    8.058213
     51          1           0        2.821048    3.276400    7.206911
     52          1           0        5.293522    1.848170    6.039318
     53          1           0        3.992305    2.785362    3.996546
     54          1           0        2.486564    2.511144    4.904760
     55          1           0        3.430423    1.107273    2.285534
     56          1           0        1.858474    1.008382    3.115986
     57          1           0        2.339940   -1.469307    3.614653
     58          1           0        4.012769   -2.615176    2.101579
     59          1           0        4.592171   -0.971756    1.495159
 ---------------------------------------------------------------------
 Rotational constants (GHZ):           0.1630889           0.0642172           0.0551909
 Basis read from rwf:  (5D, 7F)
 Pseudo-potential data read from rwf file.
   724 basis functions,  1252 primitive gaussians,   759 cartesian basis functions
   129 alpha electrons      129 beta electrons
       nuclear repulsion energy      3850.4819403703 Hartrees.
 NAtoms=   59 NActive=   59 NUniq=   59 SFac= 1.00D+00 NAtFMM=   60 NAOKFM=F Big=F
 Integral buffers will be    131072 words long.
 Raffenetti 2 integral format.
 Two-electron integral symmetry is turned off.
 One-electron integrals computed using PRISM.
   1 Symmetry operations used in ECPInt.
 ECPInt:  NShTT=   30135 NPrTT=  137153 LenC2=   23480 LenP2D=   63006.
 LDataN:  DoStor=T MaxTD1= 5 Len=  102
 NBasis=   724 RedAO= T EigKep=  6.03D-06  NBF=   724
 NBsUse=   724 1.00D-06 EigRej= -1.00D+00 NBFU=   724
 Initial guess from the checkpoint file:  "OH_AGE_opt_freq_fix_reposition_1.chk"
 B after Tr=     0.000003   -0.000000   -0.000012
         Rot=    1.000000   -0.000000   -0.000002    0.000000 Ang=  -0.00 deg.
 LinEq1:  Iter=  0 NonCon=     1 RMS=5.72D-08 Max=1.87D-06 NDo=     1
 AX will form     1 AO Fock derivatives at one time.
 LinEq1:  Iter=  1 NonCon=     1 RMS=9.02D-09 Max=3.96D-07 NDo=     1
 LinEq1:  Iter=  2 NonCon=     1 RMS=6.92D-09 Max=3.27D-07 NDo=     1
 LinEq1:  Iter=  3 NonCon=     1 RMS=4.88D-09 Max=1.85D-07 NDo=     1
 LinEq1:  Iter=  4 NonCon=     1 RMS=3.02D-09 Max=9.95D-08 NDo=     1
 LinEq1:  Iter=  5 NonCon=     1 RMS=1.70D-09 Max=7.28D-08 NDo=     1
 LinEq1:  Iter=  6 NonCon=     1 RMS=1.32D-09 Max=5.50D-08 NDo=     1
 LinEq1:  Iter=  7 NonCon=     1 RMS=1.08D-09 Max=3.10D-08 NDo=     1
 LinEq1:  Iter=  8 NonCon=     1 RMS=7.68D-10 Max=2.55D-08 NDo=     1
 LinEq1:  Iter=  9 NonCon=     1 RMS=3.87D-10 Max=1.64D-08 NDo=     1
 LinEq1:  Iter= 10 NonCon=     1 RMS=2.16D-10 Max=1.82D-08 NDo=     1
 LinEq1:  Iter= 11 NonCon=     1 RMS=1.67D-10 Max=1.13D-08 NDo=     1
 LinEq1:  Iter= 12 NonCon=     1 RMS=9.13D-11 Max=3.75D-09 NDo=     1
 LinEq1:  Iter= 13 NonCon=     1 RMS=6.74D-11 Max=3.22D-09 NDo=     1
 LinEq1:  Iter= 14 NonCon=     0 RMS=4.44D-11 Max=1.51D-09 NDo=     1
 Linear equations converged to 2.983D-10 2.983D-09 after    14 iterations.
 SCF Done:  E(RB3LYP) =  -1732.87564594     a.u. after    2 cycles
            Convg  =    0.8553D-09                    16 Fock formations.
              S**2 =  0.0000                  -V/T =  1.9518
 DoSCS=F DFT=T ScalE2(SS,OS)=  1.000000  1.000000
 Range of M.O.s used for correlation:     1   724
 NBasis=   724 NAE=   129 NBE=   129 NFC=     0 NFV=     0
 NROrb=    724 NOA=   129 NOB=   129 NVA=   595 NVB=   595

 **** Warning!!: The largest alpha MO coefficient is  0.60015270D+02

   1 Symmetry operations used in ECPInt.
 ECPInt:  NShTT=   30135 NPrTT=  137153 LenC2=   23480 LenP2D=   63006.
 LDataN:  DoStor=T MaxTD1= 6 Len=  172
 Number of processors reduced to   7 by ecpmxn.
 Symmetrizing basis deriv contribution to polar:
 IMax=3 JMax=2 DiffMx= 0.00D+00
 G2DrvN: will do    60 centers at a time, making    1 passes.
 Calling FoFCou, ICntrl=  3107 FMM=F I1Cent=   0 AccDes= 0.00D+00.
 End of G2Drv F.D. properties file   721 does not exist.
 End of G2Drv F.D. properties file   722 does not exist.
 End of G2Drv F.D. properties file   788 does not exist.
          IDoAtm=11100010000000000000000000000000000000111111111111
          IDoAtm=111111111
          Differentiating once with respect to electric field.
                with respect to dipole field.
          Differentiating once with respect to nuclear coordinates.
 CalDSu exits because no D1Ps are significant.
          There are    78 degrees of freedom in the 1st order CPHF.  IDoFFX=6 NUNeed=     3.
     78 vectors produced by pass  0 Test12= 9.84D-14 1.28D-09 XBig12= 2.87D+02 5.21D+00.
 AX will form    78 AO Fock derivatives at one time.
     78 vectors produced by pass  1 Test12= 9.84D-14 1.28D-09 XBig12= 1.23D+02 3.40D+00.
     78 vectors produced by pass  2 Test12= 9.84D-14 1.28D-09 XBig12= 1.45D+01 6.03D-01.
     78 vectors produced by pass  3 Test12= 9.84D-14 1.28D-09 XBig12= 3.12D-01 6.39D-02.
     78 vectors produced by pass  4 Test12= 9.84D-14 1.28D-09 XBig12= 4.50D-03 9.28D-03.
     78 vectors produced by pass  5 Test12= 9.84D-14 1.28D-09 XBig12= 5.14D-05 1.86D-03.
     49 vectors produced by pass  6 Test12= 9.84D-14 1.28D-09 XBig12= 3.55D-07 1.24D-04.
     18 vectors produced by pass  7 Test12= 9.84D-14 1.28D-09 XBig12= 1.98D-09 4.02D-06.
      8 vectors produced by pass  8 Test12= 9.84D-14 1.28D-09 XBig12= 8.66D-12 3.26D-07.
      3 vectors produced by pass  9 Test12= 9.84D-14 1.28D-09 XBig12= 3.38D-14 3.03D-08.
      2 vectors produced by pass 10 Test12= 9.84D-14 1.28D-09 XBig12= 1.79D-16 2.84D-09.
 InvSVY:  IOpt=1 It=  1 EMax= 1.42D-14
 Solved reduced A of dimension   548 with    78 vectors.
 Isotropic polarizability for W=    0.000000      310.47 Bohr**3.
 End of Minotr F.D. properties file   721 does not exist.
 End of Minotr F.D. properties file   722 does not exist.
 End of Minotr F.D. properties file   788 does not exist.
   1 Symmetry operations used in ECPInt.
 ECPInt:  NShTT=   30135 NPrTT=  137153 LenC2=   23480 LenP2D=   63006.
 LDataN:  DoStor=T MaxTD1= 7 Len=  274
 Calling FoFJK, ICntrl=    100127 FMM=F ISym2X=0 I1Cent= 0 IOpClX= 0 NMat=1 NMatS=1 NMatT=0.
 -------------------------------------------------------------------
 Center     Atomic                   Forces (Hartrees/Bohr)
 Number     Number              X              Y              Z
 -------------------------------------------------------------------
      1       30           0.000000000    0.000000000   -0.000000000
      2        8          -0.000000000   -0.000000000   -0.000000000
      3        8           0.000000000    0.000000000   -0.000000000
      4        8          -0.000000000   -0.000000000   -0.000000000
      5        8          -0.000000000   -0.000000000   -0.000000000
      6        6          -0.000000000   -0.000000000   -0.000000000
      7       30           0.000000000   -0.000000000   -0.000000000
      8        8          -0.000000000   -0.000000000   -0.000000000
      9        8          -0.000000000   -0.000000000   -0.000000000
     10        8          -0.000000000   -0.000000000   -0.000000000
     11        8          -0.000000000   -0.000000000   -0.000000000
     12        6          -0.000000000   -0.000000000   -0.000000000
[...]
 4,-0.00017006,-0.00000205,0.00005230,0.00021085,0.00019704,0.00065267,
 0.00021708,-0.00014614,0.00053167,-0.00099555,-0.00064367,-0.00021660,
 -0.00029513,-0.00241257,-0.01344653,0.00301405,0.00175866,0.29225931,0
 .00003920,-0.00002103,-0.00003996,-0.00006951,-0.00001021,0.00000657,-
 0.00010452,0.00003990,-0.00003479,0.,0.,0.,0.,0.,0.,0.,0.,0.,0.0000874
 6,-0.00005758,-0.00003074,0.,0.,0.,0.,0.,0.,0.,0.,0.,0.,0.,0.,0.,0.,0.
 ,0.,0.,0.,0.,0.,0.,0.,0.,0.,0.,0.,0.,0.,0.,0.,0.,0.,0.,0.,0.,0.,0.,0.,
 0.,0.,0.,0.,0.,0.,0.,0.,0.,0.,0.,0.,0.,0.,0.,0.,0.,0.,0.,0.,0.,0.,0.,0
 .,0.,0.,0.,0.,0.,0.,0.,0.,0.,0.,0.,0.,0.,0.,0.,0.,0.,0.,0.,0.,0.,0.,0.
 ,0.,0.,0.,0.,0.,0.,0.,0.,0.00006827,0.00003780,0.00001275,0.00006530,-
 0.00003275,0.00005723,0.00001774,-0.00000011,0.00000055,-0.00064238,-0
 .00046251,-0.00043560,-0.00077080,0.00235426,0.00190691,0.05982098,-0.
 06577504,-0.00648887,0.03123386,-0.02989285,-0.01343452,0.00393151,0.0
 0092718,0.00473659,-0.00001688,0.00023953,-0.00002525,-0.00014280,0.00
 030050,0.00022690,-0.00033586,-0.00027158,-0.00034070,-0.00020335,-0.0
 0025126,0.00003828,0.00017108,0.00042768,0.00008973,0.00018361,0.00092
 531,-0.00112235,-0.01542570,0.00723552,0.00234097,-0.07601008,0.083775
 57,-0.00001751,-0.00003925,-0.00004834,-0.00000786,0.00001946,0.000015
 14,-0.00003696,0.00005120,0.00002188,0.,0.,0.,0.,0.,0.,0.,0.,0.,-0.000
 00964,-0.00005584,-0.00011882,0.,0.,0.,0.,0.,0.,0.,0.,0.,0.,0.,0.,0.,0
 .,0.,0.,0.,0.,0.,0.,0.,0.,0.,0.,0.,0.,0.,0.,0.,0.,0.,0.,0.,0.,0.,0.,0.
 ,0.,0.,0.,0.,0.,0.,0.,0.,0.,0.,0.,0.,0.,0.,0.,0.,0.,0.,0.,0.,0.,0.,0.,
 0.,0.,0.,0.,0.,0.,0.,0.,0.,0.,0.,0.,0.,0.,0.,0.,0.,0.,0.,0.,0.,0.,0.,0
 .,0.,0.,0.,0.,0.,0.,0.,0.,0.,0.00000018,-0.00000882,-0.00000395,0.0000
 3354,-0.00002743,0.00000850,0.00000570,-0.00000758,-0.00000397,-0.0008
 9747,0.00116665,0.00132297,-0.02811185,0.00827656,0.00239619,0.0291284
 9,-0.00725151,-0.05581636,0.00638973,-0.01042394,-0.00218100,0.0037685
 7,-0.00045389,0.00243421,-0.00016991,-0.00003440,-0.00005006,-0.000038
 49,0.00020853,0.00003721,-0.00013858,-0.00011592,-0.00014239,0.0002772
 2,0.00011154,0.00024587,0.00080852,-0.00039921,-0.00016089,-0.00283525
 ,-0.00054697,-0.00422934,0.02292513,-0.00471441,-0.00192909,-0.0303293
 5,0.01343760,0.05801788,0.00003382,-0.00009400,0.00027137,0.00025685,0
 .00014249,-0.00008113,0.00047173,0.00041776,0.00006526,0.,0.,0.,0.,0.,
 0.,0.,0.,0.,-0.00073191,-0.00031039,0.00018384,0.,0.,0.,0.,0.,0.,0.,0.
 ,0.,0.,0.,0.,0.,0.,0.,0.,0.,0.,0.,0.,0.,0.,0.,0.,0.,0.,0.,0.,0.,0.,0.,
 0.,0.,0.,0.,0.,0.,0.,0.,0.,0.,0.,0.,0.,0.,0.,0.,0.,0.,0.,0.,0.,0.,0.,0
 .,0.,0.,0.,0.,0.,0.,0.,0.,0.,0.,0.,0.,0.,0.,0.,0.,0.,0.,0.,0.,0.,0.,0.
 ,0.,0.,0.,0.,0.,0.,0.,0.,0.,0.,0.,0.,0.,0.,0.,-0.00033358,-0.00026186,
 -0.00000390,-0.00016781,-0.00036394,-0.00001968,0.00000108,0.00001235,
 0.00003756,-0.00007675,0.00001539,0.00005226,0.00008633,0.00017834,-0.
 00014592,0.00103914,0.00195933,-0.00049912,0.01203039,0.00734555,-0.01
 837201,-0.12328889,-0.06059585,0.09336971,-0.00068344,0.00183405,0.001
 86473,0.00120209,0.00079947,-0.00078982,-0.00028587,-0.00008212,-0.000
 56786,-0.00000194,-0.00001302,0.00001233,-0.00000455,-0.00001788,0.000
 00968,-0.00000758,0.00000130,-0.00001579,-0.00014469,0.00026100,0.0011
 9763,-0.00050841,-0.00046174,-0.00001260,0.12388752,-0.00004272,-0.000
 02427,0.00002145,0.00010334,0.00007066,-0.00000845,0.00020646,0.000099
 16,0.00004108,0.,0.,0.,0.,0.,0.,0.,0.,0.,-0.00010933,0.00008093,0.0000
 1515,0.,0.,0.,0.,0.,0.,0.,0.,0.,0.,0.,0.,0.,0.,0.,0.,0.,0.,0.,0.,0.,0.
 ,0.,0.,0.,0.,0.,0.,0.,0.,0.,0.,0.,0.,0.,0.,0.,0.,0.,0.,0.,0.,0.,0.,0.,
 0.,0.,0.,0.,0.,0.,0.,0.,0.,0.,0.,0.,0.,0.,0.,0.,0.,0.,0.,0.,0.,0.,0.,0
 .,0.,0.,0.,0.,0.,0.,0.,0.,0.,0.,0.,0.,0.,0.,0.,0.,0.,0.,0.,0.,0.,0.,0.
 ,0.,-0.00013527,-0.00011566,-0.00001440,-0.00014562,-0.00015384,-0.000
 02401,0.00000140,-0.00000907,0.00001435,-0.00000645,-0.00001313,0.0000
 8193,-0.00006879,0.00003044,-0.00017118,0.00161395,0.00314941,-0.00188
 655,0.00360684,0.00372081,-0.00414466,-0.05724798,-0.10288721,0.075392
 06,-0.01809652,-0.01794131,0.02465788,-0.00066964,0.00098478,0.0020441
 7,0.00052948,0.00279438,-0.00094222,0.00000256,0.00002365,0.00001497,-
 0.00000911,-0.00002911,0.00001105,0.00001519,-0.00000154,0.00002474,-0
 .00025041,0.00053205,0.00151486,-0.00011790,-0.00013731,0.00013784,0.0
 6314805,0.10834763,0.00003760,0.00002367,-0.00007631,-0.00011468,-0.00
 006360,0.00001287,-0.00019383,-0.00012531,-0.00002824,0.,0.,0.,0.,0.,0
 .,0.,0.,0.,0.00027658,0.00011021,-0.00005935,0.,0.,0.,0.,0.,0.,0.,0.,0
 .,0.,0.,0.,0.,0.,0.,0.,0.,0.,0.,0.,0.,0.,0.,0.,0.,0.,0.,0.,0.,0.,0.,0.
 ,0.,0.,0.,0.,0.,0.,0.,0.,0.,0.,0.,0.,0.,0.,0.,0.,0.,0.,0.,0.,0.,0.,0.,
 0.,0.,0.,0.,0.,0.,0.,0.,0.,0.,0.,0.,0.,0.,0.,0.,0.,0.,0.,0.,0.,0.,0.,0
 .,0.,0.,0.,0.,0.,0.,0.,0.,0.,0.,0.,0.,0.,0.,0.00013550,0.00010293,0.00
 001345,0.00004981,0.00008888,-0.00000292,0.00001035,0.00000246,-0.0000
 0423,-0.00006052,-0.00006314,0.00007845,-0.00028490,-0.00063703,0.0003
 0448,0.00101738,0.00643138,0.00145458,0.00238687,0.00760442,-0.0411106
 7,0.09284792,0.07684180,-0.16454501,-0.00176381,-0.00236654,0.00387095
 ,-0.00023679,-0.00069278,0.00020672,0.00021849,0.00032403,0.00155091,0
 .00003815,0.00012896,-0.00007648,-0.00001924,-0.00003050,0.00002517,0.
 00006649,0.00009968,0.00000605,-0.00046428,-0.00187283,0.00070340,0.00
 017644,-0.00062081,-0.00020995,-0.09630952,-0.08635945,0.19698444,-0.0
 0006068,0.00002819,-0.00020838,-0.00013417,-0.00002727,0.00006884,-0.0
 0022796,-0.00009153,-0.00005264,0.,0.,0.,0.,0.,0.,0.,0.,0.,0.00038194,
 0.00018093,-0.00020009,0.,0.,0.,0.,0.,0.,0.,0.,0.,0.,0.,0.,0.,0.,0.,0.
 ,0.,0.,0.,0.,0.,0.,0.,0.,0.,0.,0.,0.,0.,0.,0.,0.,0.,0.,0.,0.,0.,0.,0.,
 0.,0.,0.,0.,0.,0.,0.,0.,0.,0.,0.,0.,0.,0.,0.,0.,0.,0.,0.,0.,0.,0.,0.,0
 .,0.,0.,0.,0.,0.,0.,0.,0.,0.,0.,0.,0.,0.,0.,0.,0.,0.,0.,0.,0.,0.,0.,0.
 ,0.,0.,0.,0.,0.,0.,0.,0.00014892,0.00009402,-0.00001087,0.00003665,0.0
 0011012,0.00012865,0.00002210,-0.00001889,-0.00001751,-0.00000669,-0.0
 0000990,-0.00002312,0.00042915,-0.00040955,-0.00014457,0.00110725,0.00
 227829,0.00114198,-0.01423396,0.00220948,-0.01315070,-0.26535599,0.084
 13670,0.01672760,0.00360095,-0.00025112,0.00063973,0.00072777,-0.00152
 583,-0.00068697,0.00011664,0.00130256,0.00102504,0.00002153,0.00003523
 ,-0.00001248,-0.00000081,-0.00001585,-0.00002614,0.00015772,0.00008367
 ,0.00026542,-0.00043602,-0.00027733,0.00022049,-0.00000780,-0.00135815
 ,-0.00082713,-0.01399954,0.00642263,0.00291719,0.28877233,-0.00011915,
 0.00003389,-0.00031303,-0.00010267,0.00004852,0.00012375,-0.00023437,0
 .00010012,0.00011561,0.,0.,0.,0.,0.,0.,0.,0.,0.,0.00022868,0.00027306,
 -0.00022479,0.,0.,0.,0.,0.,0.,0.,0.,0.,0.,0.,0.,0.,0.,0.,0.,0.,0.,0.,0
 .,0.,0.,0.,0.,0.,0.,0.,0.,0.,0.,0.,0.,0.,0.,0.,0.,0.,0.,0.,0.,0.,0.,0.
 ,0.,0.,0.,0.,0.,0.,0.,0.,0.,0.,0.,0.,0.,0.,0.,0.,0.,0.,0.,0.,0.,0.,0.,
 0.,0.,0.,0.,0.,0.,0.,0.,0.,0.,0.,0.,0.,0.,0.,0.,0.,0.,0.,0.,0.,0.,0.,0
 .,0.,0.,0.,0.00007301,0.00001163,-0.00002667,0.00018404,-0.00018026,-0
 .00004219,0.00004351,-0.00004614,-0.00004467,0.00005305,-0.00002503,0.
 00006404,-0.00016108,0.00000050,-0.00004146,-0.00325610,0.00266230,0.0
 0053902,-0.00538209,0.00321905,-0.00161326,0.08449299,-0.08862909,-0.0
 0363046,0.03274221,-0.01418907,-0.00541784,-0.00024194,-0.00560765,0.0
 0249758,-0.00249031,0.00304628,0.00002475,0.00000631,0.00000259,0.0000
 1400,0.00001577,0.00001297,-0.00003520,0.00007849,-0.00011266,-0.00002
 175,-0.00001757,-0.00014457,-0.00002764,0.00094769,0.00065474,0.000500
 65,-0.01442933,0.00669283,0.00239328,-0.09247067,0.09263511,-0.0001514
 7,-0.00005289,-0.00028761,-0.00000672,0.00010729,0.00010529,-0.0001654
 3,0.00028078,0.00023881,0.,0.,0.,0.,0.,0.,0.,0.,0.,-0.00023561,0.00015
 346,-0.00069627,0.,0.,0.,0.,0.,0.,0.,0.,0.,0.,0.,0.,0.,0.,0.,0.,0.,0.,
 0.,0.,0.,0.,0.,0.,0.,0.,0.,0.,0.,0.,0.,0.,0.,0.,0.,0.,0.,0.,0.,0.,0.,0
 .,0.,0.,0.,0.,0.,0.,0.,0.,0.,0.,0.,0.,0.,0.,0.,0.,0.,0.,0.,0.,0.,0.,0.
 ,0.,0.,0.,0.,0.,0.,0.,0.,0.,0.,0.,0.,0.,0.,0.,0.,0.,0.,0.,0.,0.,0.,0.,
 0.,0.,0.,0.,0.,-0.00005843,-0.00009028,-0.00003825,0.00020113,-0.00028
 472,-0.00008250,0.00004568,-0.00004660,-0.00003169,0.00008489,-0.00003
 720,-0.00002543,0.00004127,-0.00006419,-0.00013032,-0.00234186,0.00493
 068,0.00235770,-0.03919479,0.00719544,-0.01213987,0.01935982,-0.005656
 96,-0.05244765,0.00607506,-0.00134033,-0.00010428,0.00074144,-0.002263
 57,0.00109512,-0.00115940,0.00120680,0.00033736,0.00000027,-0.00000902
 ,-0.00000130,0.00002511,0.00001111,-0.00005081,0.00019940,-0.00005654,
 0.00010361,0.00032240,-0.00059781,-0.00039982,0.00147904,-0.00042979,0
 .00016096,0.02166177,-0.00802453,0.00048044,-0.00720100,0.00551434,0.0
 6106688,-0.00007112,0.00002414,-0.00011185,-0.00003610,-0.00002049,0.0
 0005184,-0.00020318,0.00006982,-0.00002418,0.,0.,0.,0.,0.,0.,0.,0.,0.,
 0.00003504,0.00003403,-0.00011976,0.,0.,0.,0.,0.,0.,0.,0.,0.,0.,0.,0.,
 0.,0.,0.,0.,0.,0.,0.,0.,0.,0.,0.,0.,0.,0.,0.,0.,0.,0.,0.,0.,0.,0.,0.,0
 .,0.,0.,0.,0.,0.,0.,0.,0.,0.,0.,0.,0.,0.,0.,0.,0.,0.,0.,0.,0.,0.,0.,0.
 ,0.,0.,0.,0.,0.,0.,0.,0.,0.,0.,0.,0.,0.,0.,0.,0.,0.,0.,0.,0.,0.,0.,0.,
 0.,0.,0.,0.,0.,0.,0.,0.,0.,0.,0.,0.00006273,0.00005590,-0.00001755,0.0
 0028660,-0.00010431,0.00005340,-0.00001183,-0.00001699,-0.00003338,0.0
 0001229,0.00001729,-0.00001422,-0.00000433,0.00001084,-0.00000412,-0.0
 0004263,-0.00013093,-0.00016113,0.00009699,0.00045604,-0.00007293,0.00
 169394,0.00136235,0.00148812,-0.10775723,-0.07212952,0.09603859,-0.011
 63739,-0.01758256,0.01601908,0.01153652,0.01215984,-0.01603619,-0.0000
 0280,-0.00000662,0.00000276,-0.00000587,-0.00000703,0.00000329,-0.0000
 2352,-0.00002139,0.00000089,0.00001721,0.00011699,-0.00001661,-0.00002
 773,0.00006634,0.00002874,0.00087183,0.00003727,-0.00019526,0.00039518
 ,-0.00051715,-0.00045990,0.10382519,0.00005492,-0.00005462,0.00012176,
 0.00004511,0.00000746,-0.00004547,0.00006371,0.00015753,0.00000210,0.,
 0.,0.,0.,0.,0.,0.,0.,0.,-0.00020838,-0.00019745,0.00004306,0.,0.,0.,0.
 ,0.,0.,0.,0.,0.,0.,0.,0.,0.,0.,0.,0.,0.,0.,0.,0.,0.,0.,0.,0.,0.,0.,0.,
 0.,0.,0.,0.,0.,0.,0.,0.,0.,0.,0.,0.,0.,0.,0.,0.,0.,0.,0.,0.,0.,0.,0.,0
 .,0.,0.,0.,0.,0.,0.,0.,0.,0.,0.,0.,0.,0.,0.,0.,0.,0.,0.,0.,0.,0.,0.,0.
 ,0.,0.,0.,0.,0.,0.,0.,0.,0.,0.,0.,0.,0.,0.,0.,0.,0.,0.,0.,-0.00004793,
 -0.00003766,0.00000995,0.00001689,-0.00013195,-0.00000321,-0.00000223,
 0.00002139,0.00001412,-0.00005262,0.00002300,-0.00008855,0.00010115,-0
 .00001920,-0.00006128,-0.00013082,0.00004959,-0.00029532,0.00092342,0.
 00193477,-0.00025392,-0.01501206,-0.01457740,0.02308910,-0.07388259,-0
 .14131930,0.10684937,0.00676633,0.00668647,-0.01165630,0.00575040,0.00
 655264,-0.00614654,0.00000039,-0.00002457,-0.00002154,0.00000524,-0.00
 001555,0.00000607,-0.00002174,-0.00000846,-0.00001165,0.00014439,0.000
 33361,-0.00005230,-0.00000021,-0.00002489,0.00004034,0.00003308,-0.005
 34199,-0.00163641,0.00036210,0.00104752,-0.00016576,0.07438231,0.14478
 533,0.00005157,0.00001682,-0.00020038,-0.00029082,-0.00012049,0.000066
 46,-0.00062460,0.00021195,-0.00010189,0.,0.,0.,0.,0.,0.,0.,0.,0.,0.000
 23551,-0.00017487,-0.00023867,0.,0.,0.,0.,0.,0.,0.,0.,0.,0.,0.,0.,0.,0
 .,0.,0.,0.,0.,0.,0.,0.,0.,0.,0.,0.,0.,0.,0.,0.,0.,0.,0.,0.,0.,0.,0.,0.
 ,0.,0.,0.,0.,0.,0.,0.,0.,0.,0.,0.,0.,0.,0.,0.,0.,0.,0.,0.,0.,0.,0.,0.,
 0.,0.,0.,0.,0.,0.,0.,0.,0.,0.,0.,0.,0.,0.,0.,0.,0.,0.,0.,0.,0.,0.,0.,0
 .,0.,0.,0.,0.,0.,0.,0.,0.,0.,0.00035194,0.00024431,0.00003008,0.000640
 19,-0.00028713,0.00024124,0.00004083,0.00000892,-0.00004801,0.00000218
 ,-0.00000244,0.00001542,-0.00000453,0.00010034,-0.00002577,0.00002999,
 -0.00012598,0.00028832,0.00062185,0.00096658,0.00150421,-0.00196985,-0
 .00401818,0.00534447,0.08947545,0.10672351,-0.17234098,-0.00139983,0.0
 0026209,-0.00612811,0.01240278,0.00610201,-0.02950337,-0.00000673,-0.0
 0001264,0.00000685,0.00000294,0.00000799,-0.00000331,-0.00000185,-0.00
 000166,-0.00000712,0.00003759,-0.00001593,-0.00018994,-0.00000267,0.00
 002053,0.00000860,-0.00061098,-0.00165171,-0.00015404,0.00001232,0.000
 39404,0.00028568,-0.09868416,-0.10865730,0.20008822,0.00010419,0.00000
 803,0.00004249,-0.00016511,-0.00014828,-0.00004660,-0.00026032,0.00006
 282,-0.00034424,0.,0.,0.,0.,0.,0.,0.,0.,0.,0.00011471,-0.00026465,0.00
 004796,0.,0.,0.,0.,0.,0.,0.,0.,0.,0.,0.,0.,0.,0.,0.,0.,0.,0.,0.,0.,0.,
 0.,0.,0.,0.,0.,0.,0.,0.,0.,0.,0.,0.,0.,0.,0.,0.,0.,0.,0.,0.,0.,0.,0.,0
 .,0.,0.,0.,0.,0.,0.,0.,0.,0.,0.,0.,0.,0.,0.,0.,0.,0.,0.,0.,0.,0.,0.,0.
 ,0.,0.,0.,0.,0.,0.,0.,0.,0.,0.,0.,0.,0.,0.,0.,0.,0.,0.,0.,0.,0.,0.,0.,
 0.,0.,0.00024264,0.00020739,0.00005881,0.00028248,-0.00009912,0.000622
 04,-0.00000318,0.00004977,0.00001338,0.00001247,0.00000318,0.00001102,
 -0.00000987,0.00004015,-0.00000607,-0.00000178,-0.00010763,0.00004035,
 0.00028899,0.00027791,0.00016614,-0.00063917,-0.00123985,-0.00023129,-
 0.00682721,0.00704244,-0.00329958,-0.05401294,0.03535528,-0.00095804,-
 0.01440913,0.03051882,-0.00208000,-0.00000164,-0.00000389,0.00000644,0
 .00000035,-0.00000029,-0.00000230,0.00000263,-0.00000533,0.00000811,0.
 00000522,0.00004023,-0.00000689,0.00000416,0.00001130,-0.00001139,0.00
 008572,0.00034395,-0.00024362,0.00032038,0.00020640,-0.00010294,0.0007
 1561,0.00049090,0.00045186,0.06677677,-0.00009439,-0.00001765,-0.00005
 953,0.00009817,0.00008769,0.00004786,0.00014637,0.00003876,0.00011141,
 0.,0.,0.,0.,0.,0.,0.,0.,0.,-0.00012630,0.00007718,-0.00008697,0.,0.,0.
 ,0.,0.,0.,0.,0.,0.,0.,0.,0.,0.,0.,0.,0.,0.,0.,0.,0.,0.,0.,0.,0.,0.,0.,
 0.,0.,0.,0.,0.,0.,0.,0.,0.,0.,0.,0.,0.,0.,0.,0.,0.,0.,0.,0.,0.,0.,0.,0
 .,0.,0.,0.,0.,0.,0.,0.,0.,0.,0.,0.,0.,0.,0.,0.,0.,0.,0.,0.,0.,0.,0.,0.
 ,0.,0.,0.,0.,0.,0.,0.,0.,0.,0.,0.,0.,0.,0.,0.,0.,0.,0.,0.,0.,-0.000131
 39,-0.00010846,-0.00004278,-0.00012410,0.00000978,-0.00010985,-0.00001
 170,-0.00003009,-0.00002378,-0.00002627,0.00000018,-0.00004000,0.00004
 325,-0.00003982,0.00002700,-0.00001517,0.00024470,0.00004989,-0.000231
 51,-0.00020302,-0.00035034,0.00162934,0.00020881,0.00062482,-0.0005610
 5,-0.00729144,0.00453000,0.04103113,-0.32382599,0.03626397,0.00780967,
 0.00463382,-0.00083487,-0.00000071,-0.00000444,-0.00001754,-0.00000219
 ,-0.00000075,0.00000732,-0.00001500,-0.00000117,-0.00000902,0.00000304
 ,-0.00000971,0.00000391,-0.00000097,-0.00000915,0.00000644,0.00008441,
 0.00032104,-0.00011436,-0.00022132,-0.00037388,-0.00044237,0.00013495,
 0.00059647,0.00008331,-0.05312921,0.33654698,0.00002912,-0.00000135,-0
 .00001368,-0.00011010,-0.00011357,-0.00002890,-0.00028331,0.00004863,-
 0.00028340,0.,0.,0.,0.,0.,0.,0.,0.,0.,0.00009413,-0.00013310,-0.000077
 29,0.,0.,0.,0.,0.,0.,0.,0.,0.,0.,0.,0.,0.,0.,0.,0.,0.,0.,0.,0.,0.,0.,0
 .,0.,0.,0.,0.,0.,0.,0.,0.,0.,0.,0.,0.,0.,0.,0.,0.,0.,0.,0.,0.,0.,0.,0.
 ,0.,0.,0.,0.,0.,0.,0.,0.,0.,0.,0.,0.,0.,0.,0.,0.,0.,0.,0.,0.,0.,0.,0.,
 0.,0.,0.,0.,0.,0.,0.,0.,0.,0.,0.,0.,0.,0.,0.,0.,0.,0.,0.,0.,0.,0.,0.,0
 .,0.00017042,0.00016677,0.00004038,0.00030420,-0.00006636,0.00049585,-
 0.00001554,0.00002436,0.00002015,-0.00002473,0.00000182,-0.00003577,0.
 00002137,-0.00003306,0.00003209,0.00005148,0.00019598,-0.00002941,-0.0
 0030485,0.00019062,-0.00005774,0.00552603,-0.00011106,0.00042638,-0.00
 152976,-0.02670235,0.00589928,0.00336518,0.03401378,-0.04882845,-0.007
 66919,0.01982592,-0.00161328,0.00000019,-0.00000354,-0.00001377,-0.000
 00209,0.00000013,0.00000780,-0.00002016,-0.00000286,-0.00002331,0.0000
 0586,-0.00001748,0.00001251,-0.00003232,0.00000612,0.00003065,0.000055
 31,0.00007306,0.00009105,-0.00026251,-0.00172026,-0.00070572,-0.001279
 28,0.00102677,-0.00006034,0.00352796,-0.03930652,0.04406992,0.00011483
 ,-0.00007744,0.00010244,-0.00003002,0.00001846,-0.00007915,0.00011770,
 0.00022402,-0.00022528,0.,0.,0.,0.,0.,0.,0.,0.,0.,-0.00007261,-0.00023
 455,0.00011078,0.,0.,0.,0.,0.,0.,0.,0.,0.,0.,0.,0.,0.,0.,0.,0.,0.,0.,0
 .,0.,0.,0.,0.,0.,0.,0.,0.,0.,0.,0.,0.,0.,0.,0.,0.,0.,0.,0.,0.,0.,0.,0.
 ,0.,0.,0.,0.,0.,0.,0.,0.,0.,0.,0.,0.,0.,0.,0.,0.,0.,0.,0.,0.,0.,0.,0.,
 0.,0.,0.,0.,0.,0.,0.,0.,0.,0.,0.,0.,0.,0.,0.,0.,0.,0.,0.,0.,0.,0.,0.,0
 .,0.,0.,0.,0.,-0.00000015,-0.00004135,0.00006283,0.00000336,-0.0003088
 6,0.00040633,0.00005432,0.00003671,0.00006093,0.00001135,0.00000086,0.
 00000550,-0.00000867,0.00005006,0.00000259,0.00001131,-0.00002692,0.00
 010421,0.00021408,0.00058868,-0.00004614,0.00004734,-0.00153820,0.0007
 3668,-0.00815538,-0.00224587,-0.00168647,-0.17886941,-0.10729464,0.088
 13867,-0.02866757,-0.00588030,0.01104379,-0.00000294,-0.00000622,0.000
 00455,0.00000131,-0.00000200,-0.00000190,0.00000501,-0.00000342,0.0000
 0846,0.00001294,0.00003780,-0.00000322,0.00000726,-0.00000223,-0.00000
 949,0.00001601,0.00072286,-0.00019068,0.00015150,0.00011019,-0.0002407
 5,0.00027866,-0.00009251,-0.00058795,0.00756776,0.00347937,-0.00162325
 ,0.20724431,0.00000439,-0.00000409,0.00000332,-0.00001371,-0.00000701,
 -0.00000658,-0.00003373,-0.00006073,-0.00006788,0.,0.,0.,0.,0.,0.,0.,0
 .,0.,0.00004699,0.00000868,0.00001610,0.,0.,0.,0.,0.,0.,0.,0.,0.,0.,0.
 ,0.,0.,0.,0.,0.,0.,0.,0.,0.,0.,0.,0.,0.,0.,0.,0.,0.,0.,0.,0.,0.,0.,0.,
 0.,0.,0.,0.,0.,0.,0.,0.,0.,0.,0.,0.,0.,0.,0.,0.,0.,0.,0.,0.,0.,0.,0.,0
 .,0.,0.,0.,0.,0.,0.,0.,0.,0.,0.,0.,0.,0.,0.,0.,0.,0.,0.,0.,0.,0.,0.,0.
 ,0.,0.,0.,0.,0.,0.,0.,0.,0.,0.,0.,0.,0.00001115,0.00002287,0.00000828,
 0.00002264,0.00007990,0.00004916,0.00000187,-0.00000943,0.00000639,0.0
 0000934,0.00000188,0.00000613,-0.00001406,-0.00000542,-0.00000804,0.00
 001557,-0.00010363,-0.00011168,0.00004918,-0.00016923,0.00033995,-0.00
 016463,0.00149925,-0.00149121,0.01154415,0.00774598,-0.00639389,-0.108
 91420,-0.14421089,0.07387511,0.00380224,0.00534809,-0.00409733,0.00000
 035,0.00000231,0.00000364,-0.00000069,-0.00000246,-0.00000082,0.000001
 09,-0.00000184,0.00000500,-0.00000897,-0.00000396,-0.00000949,-0.00000
 012,0.00000476,0.00000316,-0.00020567,-0.00011499,0.00050287,-0.000080
 22,0.00007364,0.00022698,0.00167950,-0.00070494,-0.00001111,-0.0198566
 6,-0.01081890,0.01257576,0.11216852,0.14145161,-0.00003226,0.00001185,
 0.00001268,0.00007030,0.00004202,-0.00001829,0.00027573,-0.00005544,0.
 00001578,0.,0.,0.,0.,0.,0.,0.,0.,0.,-0.00004293,0.00009662,0.00004625,
 0.,0.,0.,0.,0.,0.,0.,0.,0.,0.,0.,0.,0.,0.,0.,0.,0.,0.,0.,0.,0.,0.,0.,0
 .,0.,0.,0.,0.,0.,0.,0.,0.,0.,0.,0.,0.,0.,0.,0.,0.,0.,0.,0.,0.,0.,0.,0.
 ,0.,0.,0.,0.,0.,0.,0.,0.,0.,0.,0.,0.,0.,0.,0.,0.,0.,0.,0.,0.,0.,0.,0.,
 0.,0.,0.,0.,0.,0.,0.,0.,0.,0.,0.,0.,0.,0.,0.,0.,0.,0.,0.,0.,0.,0.,0.,-
 0.00009078,-0.00008404,0.00001168,-0.00021272,-0.00002691,0.00004856,0
 .00001122,0.00000918,0.00001914,-0.00001628,0.00000366,0.00000738,0.00
 004655,-0.00001736,-0.00001002,-0.00001792,-0.00012740,-0.00009002,-0.
 00034504,-0.00001600,0.00006166,-0.00132304,0.00160952,0.00059688,0.01
 554771,0.01809595,-0.01159027,0.09487625,0.07205560,-0.09989704,-0.017
 98981,-0.01296705,0.01159812,0.00000251,0.00000157,0.00000332,-0.00000
 809,0.00000787,0.00000353,-0.00001804,-0.00000672,-0.00002545,0.000018
 84,-0.00002900,0.00000654,-0.00002752,0.00004120,0.00002016,-0.0003617
 6,-0.00089987,0.00036748,-0.00023649,0.00012560,0.00047675,0.00335489,
 -0.00197554,0.00073112,0.00240530,-0.00044931,0.00050011,-0.09586907,-
 0.07542907,0.09718017\\0.,0.,0.,0.,0.,0.,0.,0.,0.,0.,0.,0.,0.,0.,0.,0.
 ,0.,0.,0.,0.,0.,0.,0.,0.,0.,0.,0.,0.,0.,0.,0.,0.,0.,0.,0.,0.,0.,0.,0.,
 0.,0.,0.,0.,0.,0.,0.,0.,0.,0.,0.,0.,0.,0.,0.,0.,0.,0.,0.,0.,0.,0.,0.,0
 .,0.,0.,0.,0.,0.,0.,0.,0.,0.,0.,0.,0.,0.,0.,0.,0.,0.,0.,0.,0.,0.,0.,0.
 ,0.,0.,0.,0.,0.,0.,0.,0.,0.,0.,0.,0.,0.,0.,0.,0.,0.,0.,0.,0.,0.,0.,0.,
 0.,0.,0.,0.,0.,0.,0.,0.,0.,0.,0.,0.,0.,0.,0.,0.,0.,0.,0.,0.,0.,0.,0.,0
 .,0.,0.,0.,0.,0.,0.,0.,0.,0.,0.,0.,0.,0.,0.,0.,0.,0.,0.,0.,0.,0.,0.,0.
 ,0.,0.,0.,0.,0.,0.,0.,0.,0.,0.,0.,0.,0.,0.,0.,0.,0.,0.,0.,0.,0.\\\@
 The archive entry for this job was punched.


 In the beginning there was nothing, which exploded.
 Job cpu time:       0 days  8 hours  7 minutes  2.6 seconds.
 Elapsed time:       0 days  0 hours 24 minutes 27.3 seconds.
 File lengths (MBytes):  RWF=   1619 Int=      0 D2E=      0 Chk=     37 Scr=      1
 Normal termination of Gaussian 16 at Tue Jul  4 04:28:06 2023.
