 Entering Gaussian System, Link 0=g16
 Input=OH_AGC_TEABr_opt_freq_TEA_relax_6_31Gdp.com
 Output=OH_AGC_TEABr_opt_freq_TEA_relax_6_31Gdp.log
 Initial command:
 /opt/ohpc/pub/apps/gaussian/avx2/g16/l1.exe "/scratch/g16-tmp/Gau-473640.inp" -scrdir="/scratch/g16-tmp/"
 Entering Link 1 = /opt/ohpc/pub/apps/gaussian/avx2/g16/l1.exe PID=    473642.
  
 Copyright (c) 1988-2017, Gaussian, Inc.  All Rights Reserved.
  
 This is part of the Gaussian(R) 16 program.  It is based on
 the Gaussian(R) 09 system (copyright 2009, Gaussian, Inc.),
 the Gaussian(R) 03 system (copyright 2003, Gaussian, Inc.),
 the Gaussian(R) 98 system (copyright 1998, Gaussian, Inc.),
 the Gaussian(R) 94 system (copyright 1995, Gaussian, Inc.),
 the Gaussian 92(TM) system (copyright 1992, Gaussian, Inc.),
 the Gaussian 90(TM) system (copyright 1990, Gaussian, Inc.),
 the Gaussian 88(TM) system (copyright 1988, Gaussian, Inc.),
 the Gaussian 86(TM) system (copyright 1986, Carnegie Mellon
 University), and the Gaussian 82(TM) system (copyright 1983,
 Carnegie Mellon University). Gaussian is a federally registered
 trademark of Gaussian, Inc.
  
 This software contains proprietary and confidential information,
 including trade secrets, belonging to Gaussian, Inc.
  
 This software is provided under written license and may be
 used, copied, transmitted, or stored only in accord with that
 written license.
  
 The following legend is applicable only to US Government
 contracts under FAR:
  
                    RESTRICTED RIGHTS LEGEND
  
 Use, reproduction and disclosure by the US Government is
 subject to restrictions as set forth in subparagraphs (a)
 and (c) of the Commercial Computer Software - Restricted
 Rights clause in FAR 52.227-19.
  
 Gaussian, Inc.
 340 Quinnipiac St., Bldg. 40, Wallingford CT 06492
  
  
 ---------------------------------------------------------------
 Warning -- This program may not be used in any manner that
 competes with the business of Gaussian, Inc. or will provide
 assistance to any competitor of Gaussian, Inc.  The licensee
 of this program is prohibited from giving any competitor of
 Gaussian, Inc. access to this program.  By using this program,
 the user acknowledges that Gaussian, Inc. is engaged in the
 business of creating and licensing software in the field of
 computational chemistry and represents and warrants to the
 licensee that it is not a competitor of Gaussian, Inc. and that
 it will not use this program in any manner prohibited above.
 ---------------------------------------------------------------
  

 Cite this work as:
 Gaussian 16, Revision B.01,
 M. J. Frisch, G. W. Trucks, H. B. Schlegel, G. E. Scuseria, 
 M. A. Robb, J. R. Cheeseman, G. Scalmani, V. Barone, 
 G. A. Petersson, H. Nakatsuji, X. Li, M. Caricato, A. V. Marenich, 
 J. Bloino, B. G. Janesko, R. Gomperts, B. Mennucci, H. P. Hratchian, 
 J. V. Ortiz, A. F. Izmaylov, J. L. Sonnenberg, D. Williams-Young, 
 F. Ding, F. Lipparini, F. Egidi, J. Goings, B. Peng, A. Petrone, 
 T. Henderson, D. Ranasinghe, V. G. Zakrzewski, J. Gao, N. Rega, 
 G. Zheng, W. Liang, M. Hada, M. Ehara, K. Toyota, R. Fukuda, 
 J. Hasegawa, M. Ishida, T. Nakajima, Y. Honda, O. Kitao, H. Nakai, 
 T. Vreven, K. Throssell, J. A. Montgomery, Jr., J. E. Peralta, 
 F. Ogliaro, M. J. Bearpark, J. J. Heyd, E. N. Brothers, K. N. Kudin, 
 V. N. Staroverov, T. A. Keith, R. Kobayashi, J. Normand, 
 K. Raghavachari, A. P. Rendell, J. C. Burant, S. S. Iyengar, 
 J. Tomasi, M. Cossi, J. M. Millam, M. Klene, C. Adamo, R. Cammi, 
 J. W. Ochterski, R. L. Martin, K. Morokuma, O. Farkas, 
 J. B. Foresman, and D. J. Fox, Gaussian, Inc., Wallingford CT, 2016.
 
 ******************************************
 Gaussian 16:  ES64L-G16RevB.01 20-Dec-2017
                10-Oct-2023 
 ******************************************
 %nprocshared=64
 Will use up to   64 processors via shared memory.
 %mem=64GB
 %chk=OH_AGC_TEABr_opt_freq_TEA_relax_6_31Gdp.chk
 ----------------------------------------------------------------------
 # opt=(calcall,tight,cartesian) freq b3lyp/gen nosymm scf=(qc,maxcycle
 =1024) pseudo=read
 ----------------------------------------------------------------------
 1/7=10,10=4,18=10,26=3,38=1/1,3;
 2/12=2,15=1,17=6,18=5,29=2,40=1/2;
 3/5=7,11=2,16=1,17=8,25=1,30=1,71=2,74=-5,140=1/1,2,3;
 4//1;
 5/5=2,7=1024,8=3,38=5/8;
 8/6=4,10=90,11=11/1;
 11/6=1,8=1,9=11,15=111,16=1,31=1/1,2,10;
 10/6=1,31=1/2;
 6/7=2,8=2,9=2,10=2,18=1,28=1/1;
 7/7=1,10=1,25=1,30=1/1,2,3,16;
 1/7=10,10=4,18=10,26=3/3(3);
 2/15=1,29=1/2;
 7/7=1,8=1,9=1,25=1,30=1,44=-1/16;
 99/12=1/99;
 2/15=1,29=1/2;
 3/5=7,6=1,11=2,16=1,17=8,25=1,30=1,71=2,74=-5,82=7,140=1/1,2,3;
 4/5=5,16=3,69=1/1;
 5/5=2,7=1024,8=3,38=5/8;
 8/6=4,10=90,11=11/1;
 11/6=1,8=1,9=11,15=111,16=1,31=1/1,2,10;
 10/6=1,31=1/2;
 7/7=1,10=1,25=1,30=1/1,2,3,16;
 1/7=10,10=4,18=10,26=3/3(-8);
 2/15=1,29=1/2;
 6/7=2,8=2,9=2,10=2,18=1,19=2,28=1/1;
 7/7=1,8=1,9=1,25=1,30=1,44=-1/16;
 99/12=1/99;
 ---------------------------------------
 OH_AGC_TEABr_opt_freq_TEA_relax_6_31Gdp
 ---------------------------------------
 Symbolic Z-matrix:
 Charge =  0 Multiplicity = 1
 Zn                   0    -2.69178  -0.125    -0.15057 
 O                    0    -1.20497  -1.34655  -0.90814 
 O                    0     0.71793   0.19387  -0.70314 
 O                    -1   -1.94049  -0.63788   1.72455 
 O                    -1   -0.37269   1.01087   1.91697 
 C                    -1   -1.06872   0.05737   2.35689 
 Zn                   0    -0.1826    1.89137  -0.07698 
 O                    -1   -1.63008   3.22081   0.54068 
 O                    -1   -3.34506   1.72518   0.7202 
 O                    -1   -1.08556   1.98476  -2.06075 
 O                    -1   -2.99376   0.73733  -2.01137 
 C                    -1   -2.81579   2.87056   0.84076 
 C                    -1   -2.15087   1.52281  -2.5591 
 H                    -1   -0.90808  -0.23463   3.41991 
 H                    -1   -3.46664   3.66873   1.26094 
 H                    -1   -2.38928   1.83636  -3.59889 
 C                    -1    2.59139   2.8597   -0.55114 
 C                    -1    3.70861   3.70782  -0.53735 
 C                    -1    3.56604   5.00673  -0.02115 
 C                    -1    2.30987   5.41502   0.45914 
 C                    -1    1.24091   4.5082    0.4104 
 N                    -1    1.38395   3.25577  -0.08258 
 H                    -1    4.41909   5.6904    0.00577 
 H                    -1    2.63016   1.83613  -0.93464 
 H                    -1    4.66543   3.35003  -0.92345 
 H                    -1    2.15477   6.41643   0.86647 
 H                    -1    0.23924   4.76357   0.76449 
 C                    -1   -4.7348   -1.98934   1.01851 
 C                    -1   -5.89393  -2.77545   1.08885 
 C                    -1   -6.7547   -2.81324  -0.02128 
 C                    -1   -6.42657  -2.06253  -1.16273 
 C                    -1   -5.2498   -1.29945  -1.15551 
 N                    -1   -4.42128  -1.26805  -0.08421 
 H                    -1   -7.66587  -3.41713   0.0031 
 H                    -1   -4.0254   -1.91717   1.84682 
 H                    -1   -6.11102  -3.34226   1.99667 
 H                    -1   -7.0675   -2.06191  -2.04688 
 H                    -1   -4.94024  -0.69138  -2.00924 
 H                    0    -0.028    -0.55705  -0.85193 
 H                    0     1.63959  -0.12026  -0.60943 
 H                    0    -1.08826  -2.05479  -0.24207 
 C                    0     9.54286  -5.58334  -5.39019 
 C                    0     8.41921  -5.20996  -4.76842 
 C                    0     7.82287  -3.8401   -4.84556 
 O                    0     7.62824  -3.36391  -3.46386 
 C                    0     6.89082  -2.11509  -3.36728 
 C                    0     6.28882  -2.16909  -1.975 
 C                    0     5.22626  -3.28064  -1.81237 
 O                    0     5.51849  -0.91031  -1.71799 
 H                    0     9.9168   -6.60139  -5.33861 
 H                    0     10.12861  -4.88443  -5.98293 
 H                    0     7.85097  -5.92523  -4.17633 
 H                    0     6.83998  -3.86025  -5.33903 
 H                    0     8.48478  -3.14819  -5.38624 
 H                    0     6.09075  -2.07185  -4.11654 
 H                    0     7.55872  -1.25021  -3.47577 
 H                    0     7.06867  -2.21585  -1.21226 
 H                    0     5.51449  -4.06829  -1.1203 
 H                    0     4.88403  -3.67449  -2.77396 
 N                    0     0.16452  -2.31128  -4.2257 
 C                    0     1.36421  -1.47808  -3.68501 
 C                    0     1.43684  -0.00779  -4.09696 
 H                    0     2.25794  -2.02411  -4.00544 
 H                    0     1.27447  -1.52288  -2.60035 
 H                    0     2.39704   0.36507  -3.72294 
 H                    0     1.43034   0.14663  -5.17741 
 H                    0     0.66106   0.60094  -3.62752 
 C                    0    -1.10572  -1.4443   -4.22699 
 C                    0    -2.37058  -2.13014  -4.74111 
 H                    0    -0.88363  -0.56936  -4.83662 
 H                    0    -1.24117  -1.13549  -3.18685 
 H                    0    -3.18966  -1.40872  -4.64676 
 H                    0    -2.30416  -2.42055  -5.79422 
 H                    0    -2.64686  -3.00677  -4.14889 
 C                    0    -0.07814  -3.48448  -3.23758 
 C                    0     1.16528  -4.27591  -2.83076 
 H                    0    -0.79864  -4.13807  -3.73467 
 H                    0    -0.55614  -3.01812  -2.37034 
 H                    0     0.82472  -5.18083  -2.31319 
 H                    0     1.7914   -4.57953  -3.6748 
 H                    0     1.80233  -3.71902  -2.13949 
 C                    0     0.47593  -2.91485  -5.60876 
 C                    0     0.71079  -1.92322  -6.74403 
 H                    0    -0.36354  -3.57783  -5.83236 
 H                    0     1.38832  -3.50632  -5.48423 
 H                    0     0.75397  -2.49794  -7.67591 
 H                    0    -0.08234  -1.17626  -6.85234 
 H                    0     1.67796  -1.42795  -6.63749 
 Br                   0     4.01977  -3.51913  -5.28739 
 C                    0     4.26436  -1.21135  -1.25849 
 O                    0     3.42832  -0.36424  -0.9406 
 O                    0     4.06238  -2.56005  -1.19406 
 

 GradGradGradGradGradGradGradGradGradGradGradGradGradGradGradGradGradGrad
 Berny optimization.
 Initialization pass.
 No Z-matrix variables, so optimization will use Cartesian coordinates.
 Trust Radius=3.00D-01 FncErr=1.00D-07 GrdErr=1.00D-06 EigMax=2.50D+02 EigMin=1.00D-04
 Number of steps in this run=    286 maximum allowed number of steps=    552.
 GradGradGradGradGradGradGradGradGradGradGradGradGradGradGradGradGradGrad

 Symmetry turned off by external request.
 Stoichiometry    C28H46BrN3O12Zn2
 Framework group  C1[X(C28H46BrN3O12Zn2)]
 Deg. of freedom   270
 Full point group                 C1      NOp   1
                          Input orientation:                          
 ---------------------------------------------------------------------
 Center     Atomic      Atomic             Coordinates (Angstroms)
 Number     Number       Type             X           Y           Z
 ---------------------------------------------------------------------
      1         30           0       -2.691781   -0.125002   -0.150568
      2          8           0       -1.204972   -1.346547   -0.908139
      3          8           0        0.717931    0.193869   -0.703136
      4          8           0       -1.940493   -0.637880    1.724552
      5          8           0       -0.372693    1.010875    1.916972
      6          6           0       -1.068724    0.057367    2.356892
      7         30           0       -0.182600    1.891369   -0.076983
      8          8           0       -1.630079    3.220806    0.540676
      9          8           0       -3.345064    1.725183    0.720202
     10          8           0       -1.085559    1.984761   -2.060749
     11          8           0       -2.993756    0.737325   -2.011366
     12          6           0       -2.815788    2.870560    0.840756
     13          6           0       -2.150867    1.522812   -2.559095
     14          1           0       -0.908079   -0.234626    3.419908
     15          1           0       -3.466636    3.668730    1.260937
     16          1           0       -2.389282    1.836355   -3.598888
     17          6           0        2.591387    2.859704   -0.551135
     18          6           0        3.708612    3.707815   -0.537348
     19          6           0        3.566043    5.006726   -0.021154
     20          6           0        2.309865    5.415023    0.459138
     21          6           0        1.240906    4.508199    0.410399
     22          7           0        1.383948    3.255771   -0.082584
     23          1           0        4.419088    5.690402    0.005770
     24          1           0        2.630158    1.836132   -0.934636
     25          1           0        4.665434    3.350028   -0.923448
     26          1           0        2.154774    6.416431    0.866473
     27          1           0        0.239236    4.763568    0.764493
     28          6           0       -4.734795   -1.989342    1.018511
     29          6           0       -5.893934   -2.775449    1.088845
     30          6           0       -6.754703   -2.813244   -0.021280
     31          6           0       -6.426568   -2.062530   -1.162730
     32          6           0       -5.249797   -1.299450   -1.155511
     33          7           0       -4.421278   -1.268045   -0.084209
     34          1           0       -7.665873   -3.417132    0.003100
     35          1           0       -4.025399   -1.917166    1.846823
     36          1           0       -6.111019   -3.342262    1.996669
     37          1           0       -7.067496   -2.061912   -2.046875
     38          1           0       -4.940236   -0.691384   -2.009240
     39          1           0       -0.028004   -0.557047   -0.851931
     40          1           0        1.639594   -0.120262   -0.609430
     41          1           0       -1.088258   -2.054788   -0.242069
     42          6           0        9.542864   -5.583337   -5.390189
     43          6           0        8.419214   -5.209960   -4.768415
     44          6           0        7.822873   -3.840102   -4.845564
     45          8           0        7.628243   -3.363906   -3.463856
     46          6           0        6.890818   -2.115092   -3.367275
     47          6           0        6.288815   -2.169086   -1.975004
     48          6           0        5.226263   -3.280636   -1.812369
     49          8           0        5.518491   -0.910308   -1.717992
     50          1           0        9.916797   -6.601388   -5.338606
     51          1           0       10.128607   -4.884429   -5.982928
     52          1           0        7.850966   -5.925225   -4.176330
     53          1           0        6.839976   -3.860245   -5.339030
     54          1           0        8.484780   -3.148188   -5.386241
     55          1           0        6.090747   -2.071853   -4.116544
     56          1           0        7.558723   -1.250206   -3.475767
     57          1           0        7.068670   -2.215854   -1.212259
     58          1           0        5.514488   -4.068294   -1.120301
     59          1           0        4.884034   -3.674486   -2.773960
     60          7           0        0.164524   -2.311284   -4.225701
     61          6           0        1.364208   -1.478078   -3.685011
     62          6           0        1.436842   -0.007791   -4.096961
     63          1           0        2.257937   -2.024108   -4.005437
     64          1           0        1.274473   -1.522875   -2.600345
     65          1           0        2.397036    0.365068   -3.722941
     66          1           0        1.430342    0.146625   -5.177409
     67          1           0        0.661059    0.600936   -3.627517
     68          6           0       -1.105721   -1.444297   -4.226994
     69          6           0       -2.370581   -2.130143   -4.741111
     70          1           0       -0.883626   -0.569364   -4.836622
     71          1           0       -1.241169   -1.135490   -3.186855
     72          1           0       -3.189664   -1.408716   -4.646762
     73          1           0       -2.304158   -2.420553   -5.794219
     74          1           0       -2.646860   -3.006772   -4.148891
     75          6           0       -0.078141   -3.484481   -3.237578
     76          6           0        1.165275   -4.275906   -2.830763
     77          1           0       -0.798639   -4.138072   -3.734666
     78          1           0       -0.556144   -3.018116   -2.370338
     79          1           0        0.824716   -5.180827   -2.313193
     80          1           0        1.791399   -4.579529   -3.674796
     81          1           0        1.802329   -3.719024   -2.139485
     82          6           0        0.475933   -2.914853   -5.608755
     83          6           0        0.710792   -1.923219   -6.744028
     84          1           0       -0.363540   -3.577828   -5.832361
     85          1           0        1.388318   -3.506315   -5.484232
     86          1           0        0.753965   -2.497943   -7.675906
     87          1           0       -0.082344   -1.176264   -6.852342
     88          1           0        1.677956   -1.427952   -6.637487
     89         35           0        4.019767   -3.519132   -5.287386
     90          6           0        4.264358   -1.211346   -1.258485
     91          8           0        3.428315   -0.364241   -0.940597
     92          8           0        4.062380   -2.560054   -1.194055
 ---------------------------------------------------------------------
 Rotational constants (GHZ):           0.0712641           0.0307829           0.0247827
 General basis read from cards:  (5D, 7F)
 ======================================================================================================
                                       Pseudopotential Parameters
 ======================================================================================================
  Center     Atomic      Valence      Angular      Power
  Number     Number     Electrons     Momentum     of R      Exponent        Coefficient   SO-Coeffient
 ======================================================================================================
    1         30           12
                                      F and up 
                                                     1      386.7379660      -18.00000000    0.00000000
                                                     2       72.8587359     -124.35274030    0.00000000
                                                     2       15.9066170      -30.66018220    0.00000000
                                                     2        4.3502340      -10.63589890    0.00000000
                                                     2        1.2842199       -0.76836230    0.00000000
                                      S - F
                                                     0       19.0867858        3.00000000    0.00000000
                                                     1        5.0231080       22.52342250    0.00000000
                                                     2        1.2701744       48.44659420    0.00000000
                                                     2        1.0671287      -44.55601190    0.00000000
                                                     2        0.9264190       12.99839580    0.00000000
                                      P - F
                                                     0       43.4927750        5.00000000    0.00000000
                                                     1       20.8692669       20.74355890    0.00000000
                                                     2       21.7118378       90.30271580    0.00000000
                                                     2        6.3616915       74.66103160    0.00000000
                                                     2        1.2291195        9.88944240    0.00000000
                                      D - F
                                                     2       13.5851800       -4.84903590    0.00000000
                                                     2        9.8373050        3.69133790    0.00000000
                                                     2        0.8373113       -0.50373190    0.00000000
    2          8
                                   No pseudopotential on this center.
    3          8
                                   No pseudopotential on this center.
    4          8
                                   No pseudopotential on this center.
    5          8
                                   No pseudopotential on this center.
    6          6
                                   No pseudopotential on this center.
    7         30           12
                                      F and up 
                                                     1      386.7379660      -18.00000000    0.00000000
                                                     2       72.8587359     -124.35274030    0.00000000
                                                     2       15.9066170      -30.66018220    0.00000000
                                                     2        4.3502340      -10.63589890    0.00000000
                                                     2        1.2842199       -0.76836230    0.00000000
                                      S - F
                                                     0       19.0867858        3.00000000    0.00000000
                                                     1        5.0231080       22.52342250    0.00000000
                                                     2        1.2701744       48.44659420    0.00000000
                                                     2        1.0671287      -44.55601190    0.00000000
                                                     2        0.9264190       12.99839580    0.00000000
                                      P - F
                                                     0       43.4927750        5.00000000    0.00000000
                                                     1       20.8692669       20.74355890    0.00000000
                                                     2       21.7118378       90.30271580    0.00000000
                                                     2        6.3616915       74.66103160    0.00000000
                                                     2        1.2291195        9.88944240    0.00000000
                                      D - F
                                                     2       13.5851800       -4.84903590    0.00000000
                                                     2        9.8373050        3.69133790    0.00000000
                                                     2        0.8373113       -0.50373190    0.00000000
    8          8
                                   No pseudopotential on this center.
    9          8
                                   No pseudopotential on this center.
   10          8
                                   No pseudopotential on this center.
   11          8
                                   No pseudopotential on this center.
   12          6
                                   No pseudopotential on this center.
   13          6
                                   No pseudopotential on this center.
   14          1
                                   No pseudopotential on this center.
   15          1
                                   No pseudopotential on this center.
   16          1
                                   No pseudopotential on this center.
   17          6
                                   No pseudopotential on this center.
   18          6
                                   No pseudopotential on this center.
   19          6
                                   No pseudopotential on this center.
   20          6
                                   No pseudopotential on this center.
   21          6
                                   No pseudopotential on this center.
   22          7
                                   No pseudopotential on this center.
   23          1
                                   No pseudopotential on this center.
   24          1
                                   No pseudopotential on this center.
   25          1
                                   No pseudopotential on this center.
   26          1
                                   No pseudopotential on this center.
   27          1
                                   No pseudopotential on this center.
   28          6
                                   No pseudopotential on this center.
   29          6
                                   No pseudopotential on this center.
   30          6
                                   No pseudopotential on this center.
   31          6
                                   No pseudopotential on this center.
   32          6
                                   No pseudopotential on this center.
   33          7
                                   No pseudopotential on this center.
   34          1
                                   No pseudopotential on this center.
   35          1
                                   No pseudopotential on this center.
   36          1
                                   No pseudopotential on this center.
   37          1
                                   No pseudopotential on this center.
   38          1
                                   No pseudopotential on this center.
   39          1
                                   No pseudopotential on this center.
   40          1
                                   No pseudopotential on this center.
   41          1
                                   No pseudopotential on this center.
   42          6
                                   No pseudopotential on this center.
   43          6
                                   No pseudopotential on this center.
   44          6
                                   No pseudopotential on this center.
   45          8
                                   No pseudopotential on this center.
   46          6
                                   No pseudopotential on this center.
   47          6
                                   No pseudopotential on this center.
   48          6
                                   No pseudopotential on this center.
   49          8
                                   No pseudopotential on this center.
   50          1
                                   No pseudopotential on this center.
   51          1
                                   No pseudopotential on this center.
   52          1
                                   No pseudopotential on this center.
   53          1
                                   No pseudopotential on this center.
   54          1
                                   No pseudopotential on this center.
   55          1
                                   No pseudopotential on this center.
   56          1
                                   No pseudopotential on this center.
   57          1
                                   No pseudopotential on this center.
   58          1
                                   No pseudopotential on this center.
   59          1
                                   No pseudopotential on this center.
   60          7
                                   No pseudopotential on this center.
   61          6
                                   No pseudopotential on this center.
   62          6
                                   No pseudopotential on this center.
   63          1
                                   No pseudopotential on this center.
   64          1
                                   No pseudopotential on this center.
   65          1
                                   No pseudopotential on this center.
   66          1
                                   No pseudopotential on this center.
   67          1
                                   No pseudopotential on this center.
   68          6
                                   No pseudopotential on this center.
   69          6
                                   No pseudopotential on this center.
   70          1
                                   No pseudopotential on this center.
   71          1
                                   No pseudopotential on this center.
   72          1
                                   No pseudopotential on this center.
   73          1
                                   No pseudopotential on this center.
   74          1
                                   No pseudopotential on this center.
   75          6
                                   No pseudopotential on this center.
   76          6
                                   No pseudopotential on this center.
   77          1
                                   No pseudopotential on this center.
   78          1
                                   No pseudopotential on this center.
   79          1
                                   No pseudopotential on this center.
   80          1
                                   No pseudopotential on this center.
   81          1
                                   No pseudopotential on this center.
   82          6
                                   No pseudopotential on this center.
   83          6
                                   No pseudopotential on this center.
   84          1
                                   No pseudopotential on this center.
   85          1
                                   No pseudopotential on this center.
   86          1
                                   No pseudopotential on this center.
   87          1
                                   No pseudopotential on this center.
   88          1
                                   No pseudopotential on this center.
   89         35
                                   No pseudopotential on this center.
   90          6
                                   No pseudopotential on this center.
   91          8
                                   No pseudopotential on this center.
   92          8
                                   No pseudopotential on this center.
 ======================================================================================================
  1072 basis functions,  1863 primitive gaussians,  1121 cartesian basis functions
   195 alpha electrons      195 beta electrons
       nuclear repulsion energy      7436.0190793485 Hartrees.
 NAtoms=   92 NActive=   92 NUniq=   92 SFac= 1.00D+00 NAtFMM=   60 NAOKFM=T Big=T
 Integral buffers will be    131072 words long.
 Raffenetti 2 integral format.
 Two-electron integral symmetry is turned off.
 One-electron integrals computed using PRISM.
   1 Symmetry operations used in ECPInt.
 ECPInt:  NShTT=   71631 NPrTT=  319784 LenC2=   51898 LenP2D=  132378.
 LDataN:  DoStor=T MaxTD1= 5 Len=  102
 NBasis=  1072 RedAO= T EigKep=  5.03D-06  NBF=  1072
 NBsUse=  1072 1.00D-06 EigRej= -1.00D+00 NBFU=  1072
 ExpMin= 3.50D-02 ExpMax= 5.74D+05 ExpMxC= 5.74D+03 IAcc=3 IRadAn=         5 AccDes= 0.00D+00
 Harris functional with IExCor=  402 and IRadAn=       5 diagonalized for initial guess.
 HarFok:  IExCor=  402 AccDes= 0.00D+00 IRadAn=         5 IDoV= 1 UseB2=F ITyADJ=14
 ICtDFT=  3500011 ScaDFX=  1.000000  1.000000  1.000000  1.000000
 FoFCou: FMM=F IPFlag=           0 FMFlag=      100000 FMFlg1=        2001
         NFxFlg=           0 DoJE=T BraDBF=F KetDBF=T FulRan=T
         wScrn=  0.000000 ICntrl=       500 IOpCl=  0 I1Cent=   200000004 NGrid=           0
         NMat0=    1 NMatS0=      1 NMatT0=    0 NMatD0=    1 NMtDS0=    0 NMtDT0=    0
 Symmetry not used in FoFCou.
 Gradient too large for Newton-Raphson -- use scaled steepest descent instead.
     Accept linear search using points  2 and  3.
 Gradient too large for Newton-Raphson -- use scaled steepest descent instead.
     Accept linear search using points  2 and  3.
 Gradient too large for Newton-Raphson -- use scaled steepest descent instead.
 Gradient too large for Newton-Raphson -- use scaled steepest descent instead.
     Accept linear search using points  1 and  2.
 Gradient too large for Newton-Raphson -- use scaled steepest descent instead.
     Accept linear search using points  2 and  3.
 Gradient too large for Newton-Raphson -- use scaled steepest descent instead.
     Minimum is close to point  2 DX=  2.67D-02 DF= -1.10D-07 DXR=  5.07D-02 DFR=  2.58D-03 which will be used.
 LinEq1:  Iter=  0 NonCon=     1 RMS=1.08D-05 Max=5.68D-04 NDo=     1
 AX will form     1 AO Fock derivatives at one time.
 LinEq1:  Iter=  1 NonCon=     1 RMS=1.15D-05 Max=1.07D-03 NDo=     1
 LinEq1:  Iter=  2 NonCon=     1 RMS=4.87D-06 Max=4.07D-04 NDo=     1
 LinEq1:  Iter=  3 NonCon=     1 RMS=2.54D-06 Max=1.30D-04 NDo=     1
 LinEq1:  Iter=  4 NonCon=     1 RMS=2.18D-06 Max=2.60D-04 NDo=     1
 LinEq1:  Iter=  5 NonCon=     1 RMS=1.19D-06 Max=6.41D-05 NDo=     1
 LinEq1:  Iter=  6 NonCon=     1 RMS=7.15D-07 Max=4.08D-05 NDo=     1
 LinEq1:  Iter=  7 NonCon=     1 RMS=5.99D-07 Max=4.67D-05 NDo=     1
 LinEq1:  Iter=  8 NonCon=     1 RMS=3.35D-07 Max=3.46D-05 NDo=     1
 LinEq1:  Iter=  9 NonCon=     1 RMS=2.76D-07 Max=2.91D-05 NDo=     1
 LinEq1:  Iter= 10 NonCon=     1 RMS=1.38D-07 Max=1.55D-05 NDo=     1
 LinEq1:  Iter= 11 NonCon=     1 RMS=1.04D-07 Max=8.82D-06 NDo=     1
 LinEq1:  Iter= 12 NonCon=     1 RMS=4.82D-08 Max=2.47D-06 NDo=     1
 LinEq1:  Iter= 13 NonCon=     1 RMS=4.01D-08 Max=2.19D-06 NDo=     1
 LinEq1:  Iter= 14 NonCon=     1 RMS=3.12D-08 Max=2.60D-06 NDo=     1
 LinEq1:  Iter= 15 NonCon=     1 RMS=1.63D-08 Max=1.39D-06 NDo=     1
 LinEq1:  Iter= 16 NonCon=     1 RMS=1.09D-08 Max=1.21D-06 NDo=     1
 LinEq1:  Iter= 17 NonCon=     1 RMS=7.19D-09 Max=6.87D-07 NDo=     1
 LinEq1:  Iter= 18 NonCon=     0 RMS=3.92D-09 Max=4.23D-07 NDo=     1
 Linear equations converged to 5.848D-08 5.848D-07 after    18 iterations.
     Accept linear search using points  1 and  2.
     Minimum is close to point  2 DX= -1.99D-05 DF=  0.00D+00 DXR=  1.99D-05 DFR=  0.00D+00 which will be used.
 SCF Done:  E(RB3LYP) =  -4864.59108004     a.u. after    8 cycles
            Convg  =    0.3092D-05                    36 Fock formations.
              S**2 =  0.0000                  -V/T =  1.9833
 DoSCS=F DFT=T ScalE2(SS,OS)=  1.000000  1.000000
 Range of M.O.s used for correlation:     1  1072
 NBasis=  1072 NAE=   195 NBE=   195 NFC=     0 NFV=     0
 NROrb=   1072 NOA=   195 NOB=   195 NVA=   877 NVB=   877

 **** Warning!!: The largest alpha MO coefficient is  0.60145250D+02

 PrsmSu:  requested number of processors reduced to:  47 ShMem   1 Linda.
   1 Symmetry operations used in ECPInt.
 ECPInt:  NShTT=   71631 NPrTT=  319784 LenC2=   51898 LenP2D=  132378.
 LDataN:  DoStor=T MaxTD1= 6 Len=  172
 Number of processors reduced to   6 by ecpmxn.
 Symmetrizing basis deriv contribution to polar:
 IMax=3 JMax=2 DiffMx= 0.00D+00
 G2DrvN: will do    47 centers at a time, making    2 passes.
 Calling FoFCou, ICntrl=  3107 FMM=T I1Cent=   0 AccDes= 0.00D+00.
 Calling FoFCou, ICntrl=  3107 FMM=T I1Cent=   0 AccDes= 0.00D+00.
 End of G2Drv F.D. properties file   721 does not exist.
 End of G2Drv F.D. properties file   722 does not exist.
 End of G2Drv F.D. properties file   788 does not exist.
          IDoAtm=11100010000000000000000000000000000000111111111111
          IDoAtm=111111111111111111111111111111111111111111
          Differentiating once with respect to electric field.
                with respect to dipole field.
          Differentiating once with respect to nuclear coordinates.
 CalDSu exits because no D1Ps are significant.
          There are   177 degrees of freedom in the 1st order CPHF.  IDoFFX=6 NUNeed=     3.
    177 vectors produced by pass  0 Test12= 1.71D-13 1.00D-09 XBig12= 4.36D+02 5.68D+00.
 AX will form    96 AO Fock derivatives at one time.
    177 vectors produced by pass  1 Test12= 1.71D-13 1.00D-09 XBig12= 1.59D+02 3.92D+00.
    177 vectors produced by pass  2 Test12= 1.71D-13 1.00D-09 XBig12= 1.29D+01 4.36D-01.
    177 vectors produced by pass  3 Test12= 1.71D-13 1.00D-09 XBig12= 2.70D-01 7.23D-02.
    177 vectors produced by pass  4 Test12= 1.71D-13 1.00D-09 XBig12= 3.66D-03 9.59D-03.
    166 vectors produced by pass  5 Test12= 1.71D-13 1.00D-09 XBig12= 3.21D-05 1.65D-03.
     57 vectors produced by pass  6 Test12= 1.71D-13 1.00D-09 XBig12= 1.27D-07 6.20D-05.
     15 vectors produced by pass  7 Test12= 1.71D-13 1.00D-09 XBig12= 3.97D-10 2.26D-06.
      6 vectors produced by pass  8 Test12= 1.71D-13 1.00D-09 XBig12= 1.64D-12 1.21D-07.
      3 vectors produced by pass  9 Test12= 1.71D-13 1.00D-09 XBig12= 5.94D-15 9.06D-09.
 InvSVY:  IOpt=1 It=  1 EMax= 1.07D-14
 Solved reduced A of dimension  1132 with   177 vectors.
 Isotropic polarizability for W=    0.000000      473.88 Bohr**3.
 End of Minotr F.D. properties file   721 does not exist.
 End of Minotr F.D. properties file   722 does not exist.
 End of Minotr F.D. properties file   788 does not exist.

 **********************************************************************

            Population analysis using the SCF Density.

 **********************************************************************

 Alpha  occ. eigenvalues -- -482.54685 -61.63043 -56.19828 -56.19793 -56.19771
 Alpha  occ. eigenvalues --  -19.21600 -19.21465 -19.16543 -19.14537 -19.13706
 Alpha  occ. eigenvalues --  -19.13578 -19.13105 -19.12853 -19.12799 -19.12693
 Alpha  occ. eigenvalues --  -19.12546 -19.09769 -14.45237 -14.39069 -14.38751
 Alpha  occ. eigenvalues --  -10.38610 -10.30319 -10.29600 -10.29334 -10.26628
 Alpha  occ. eigenvalues --  -10.26210 -10.26135 -10.25616 -10.25478 -10.25123
 Alpha  occ. eigenvalues --  -10.24673 -10.24032 -10.23999 -10.23896 -10.23545
 Alpha  occ. eigenvalues --  -10.23495 -10.23385 -10.22905 -10.22759 -10.22696
 Alpha  occ. eigenvalues --  -10.22548 -10.21553 -10.20447 -10.18952 -10.18012
 Alpha  occ. eigenvalues --  -10.17999 -10.17969 -10.17310  -8.39943  -6.40752
 Alpha  occ. eigenvalues --   -6.40732  -6.40719  -2.52858  -2.52855  -2.52844
 Alpha  occ. eigenvalues --   -2.52827  -2.52826  -1.15043  -1.05845  -1.05134
 Alpha  occ. eigenvalues --   -1.04580  -1.04500  -1.04137  -1.00874  -0.99383
 Alpha  occ. eigenvalues --   -0.98349  -0.98322  -0.97847  -0.97547  -0.96888
 Alpha  occ. eigenvalues --   -0.96429  -0.91937  -0.83906  -0.83280  -0.80179
 Alpha  occ. eigenvalues --   -0.79795  -0.79264  -0.79147  -0.78616  -0.77953
 Alpha  occ. eigenvalues --   -0.76940  -0.73798  -0.70591  -0.66877  -0.66821
 Alpha  occ. eigenvalues --   -0.66370  -0.66331  -0.66052  -0.65721  -0.65118
 Alpha  occ. eigenvalues --   -0.64474  -0.62251  -0.61601  -0.61266  -0.61019
 Alpha  occ. eigenvalues --   -0.60759  -0.59949  -0.59830  -0.59626  -0.59308
 Alpha  occ. eigenvalues --   -0.59024  -0.58624  -0.58329  -0.58108  -0.57961
 Alpha  occ. eigenvalues --   -0.57783  -0.57330  -0.55986  -0.55527  -0.55088
 Alpha  occ. eigenvalues --   -0.55020  -0.53968  -0.53048  -0.51917  -0.51609
 Alpha  occ. eigenvalues --   -0.51578  -0.50971  -0.50634  -0.50289  -0.49769
 Alpha  occ. eigenvalues --   -0.49484  -0.49465  -0.48262  -0.48094  -0.47776
 Alpha  occ. eigenvalues --   -0.47306  -0.47108  -0.46947  -0.46603  -0.46187
 Alpha  occ. eigenvalues --   -0.46086  -0.45679  -0.45447  -0.45286  -0.45012
 Alpha  occ. eigenvalues --   -0.44449  -0.44213  -0.43873  -0.43665  -0.43443
 Alpha  occ. eigenvalues --   -0.43334  -0.43192  -0.42894  -0.42330  -0.42124
 Alpha  occ. eigenvalues --   -0.41825  -0.41344  -0.41273  -0.40944  -0.40624
 Alpha  occ. eigenvalues --   -0.40080  -0.39917  -0.39659  -0.39525  -0.39260
 Alpha  occ. eigenvalues --   -0.39192  -0.39062  -0.38637  -0.38089  -0.38060
 Alpha  occ. eigenvalues --   -0.37799  -0.37107  -0.36292  -0.36215  -0.35570
 Alpha  occ. eigenvalues --   -0.35254  -0.34786  -0.34680  -0.34567  -0.33558
 Alpha  occ. eigenvalues --   -0.32794  -0.32451  -0.32243  -0.31843  -0.31774
 Alpha  occ. eigenvalues --   -0.31586  -0.31356  -0.30711  -0.29905  -0.29641
 Alpha  occ. eigenvalues --   -0.29287  -0.29146  -0.28874  -0.28765  -0.27669
 Alpha  occ. eigenvalues --   -0.27399  -0.27241  -0.26861  -0.26326  -0.26252
 Alpha  occ. eigenvalues --   -0.25213  -0.25012  -0.19285  -0.19228  -0.19150
 Alpha virt. eigenvalues --   -0.07515  -0.06935  -0.05369  -0.04689  -0.01690
 Alpha virt. eigenvalues --   -0.00774  -0.00703  -0.00242   0.00021   0.00435
 Alpha virt. eigenvalues --    0.00556   0.00707   0.00945   0.01251   0.01648
 Alpha virt. eigenvalues --    0.01788   0.01908   0.02246   0.02453   0.02547
 Alpha virt. eigenvalues --    0.02684   0.02688   0.03094   0.03242   0.03329
 Alpha virt. eigenvalues --    0.03424   0.03568   0.03983   0.04430   0.04571
 Alpha virt. eigenvalues --    0.04781   0.04883   0.05096   0.05255   0.05653
 Alpha virt. eigenvalues --    0.05938   0.06053   0.06305   0.06416   0.06563
 Alpha virt. eigenvalues --    0.06665   0.06950   0.07133   0.07226   0.07584
 Alpha virt. eigenvalues --    0.07627   0.07843   0.08220   0.08468   0.08492
 Alpha virt. eigenvalues --    0.08694   0.08778   0.08934   0.09071   0.09105
 Alpha virt. eigenvalues --    0.09317   0.09576   0.09727   0.09795   0.09964
 Alpha virt. eigenvalues --    0.10028   0.10408   0.10424   0.10507   0.10900
 Alpha virt. eigenvalues --    0.10949   0.11136   0.11332   0.11669   0.11802
 Alpha virt. eigenvalues --    0.11958   0.12014   0.12179   0.12339   0.12543
 Alpha virt. eigenvalues --    0.12752   0.12854   0.12942   0.13146   0.13277
 Alpha virt. eigenvalues --    0.13653   0.13726   0.13951   0.14016   0.14321
 Alpha virt. eigenvalues --    0.14503   0.14765   0.14884   0.15082   0.15276
 Alpha virt. eigenvalues --    0.15560   0.15708   0.15796   0.15944   0.16106
 Alpha virt. eigenvalues --    0.16169   0.16262   0.16463   0.16546   0.16728
 Alpha virt. eigenvalues --    0.16898   0.17122   0.17173   0.17362   0.17546
 Alpha virt. eigenvalues --    0.17762   0.17828   0.17895   0.18001   0.18252
 Alpha virt. eigenvalues --    0.18375   0.18446   0.18746   0.18843   0.18939
 Alpha virt. eigenvalues --    0.19093   0.19310   0.19527   0.19659   0.19864
 Alpha virt. eigenvalues --    0.19898   0.20141   0.20260   0.20340   0.20381
 Alpha virt. eigenvalues --    0.20545   0.20887   0.21098   0.21119   0.21281
 Alpha virt. eigenvalues --    0.21364   0.21548   0.21639   0.21821   0.21960
 Alpha virt. eigenvalues --    0.22062   0.22187   0.22340   0.22593   0.22823
 Alpha virt. eigenvalues --    0.23040   0.23181   0.23190   0.23324   0.23591
 Alpha virt. eigenvalues --    0.23746   0.23780   0.24100   0.24348   0.24584
 Alpha virt. eigenvalues --    0.24685   0.24934   0.25114   0.25235   0.25457
 Alpha virt. eigenvalues --    0.25528   0.25651   0.26001   0.26067   0.26197
 Alpha virt. eigenvalues --    0.26241   0.26366   0.26545   0.26818   0.27167
 Alpha virt. eigenvalues --    0.27248   0.27338   0.27598   0.27609   0.27794
 Alpha virt. eigenvalues --    0.27927   0.27959   0.28192   0.28598   0.28652
 Alpha virt. eigenvalues --    0.28816   0.29014   0.29213   0.29396   0.29719
 Alpha virt. eigenvalues --    0.29897   0.30067   0.30142   0.30234   0.30599
 Alpha virt. eigenvalues --    0.30617   0.30770   0.30880   0.31068   0.31272
 Alpha virt. eigenvalues --    0.31373   0.31554   0.31850   0.31909   0.32232
 Alpha virt. eigenvalues --    0.32327   0.32482   0.32979   0.33064   0.33344
 Alpha virt. eigenvalues --    0.33461   0.33985   0.34083   0.34208   0.34527
 Alpha virt. eigenvalues --    0.34793   0.34887   0.35308   0.35502   0.35753
 Alpha virt. eigenvalues --    0.35924   0.36228   0.36463   0.36783   0.37019
 Alpha virt. eigenvalues --    0.37268   0.37542   0.37593   0.37705   0.37883
 Alpha virt. eigenvalues --    0.38216   0.38339   0.38497   0.38681   0.39028
 Alpha virt. eigenvalues --    0.39145   0.39272   0.40048   0.40312   0.40452
 Alpha virt. eigenvalues --    0.40724   0.41115   0.41339   0.41417   0.41772
 Alpha virt. eigenvalues --    0.42105   0.42256   0.42841   0.42914   0.42997
 Alpha virt. eigenvalues --    0.43223   0.43494   0.43755   0.44156   0.44508
 Alpha virt. eigenvalues --    0.44689   0.45258   0.45444   0.45916   0.46006
 Alpha virt. eigenvalues --    0.46389   0.46928   0.47019   0.47486   0.47628
 Alpha virt. eigenvalues --    0.47783   0.48178   0.48500   0.48984   0.49240
 Alpha virt. eigenvalues --    0.49283   0.49726   0.49931   0.50513   0.51147
 Alpha virt. eigenvalues --    0.51594   0.51852   0.52277   0.52646   0.52899
 Alpha virt. eigenvalues --    0.53114   0.53998   0.54606   0.54965   0.55340
 Alpha virt. eigenvalues --    0.56130   0.56410   0.56890   0.58140   0.58680
 Alpha virt. eigenvalues --    0.58988   0.59878   0.61252   0.61558   0.61842
 Alpha virt. eigenvalues --    0.62520   0.63279   0.63823   0.64474   0.65039
 Alpha virt. eigenvalues --    0.65401   0.66413   0.66771   0.67178   0.67565
 Alpha virt. eigenvalues --    0.67793   0.67978   0.68428   0.68587   0.69086
 Alpha virt. eigenvalues --    0.69639   0.69925   0.70124   0.70686   0.70813
 Alpha virt. eigenvalues --    0.71014   0.71226   0.71442   0.71926   0.72137
 Alpha virt. eigenvalues --    0.72539   0.72877   0.72928   0.73255   0.73532
 Alpha virt. eigenvalues --    0.73708   0.73973   0.74327   0.74847   0.75334
 Alpha virt. eigenvalues --    0.75745   0.76149   0.76557   0.77202   0.77922
 Alpha virt. eigenvalues --    0.78780   0.79089   0.79671   0.79794   0.80249
 Alpha virt. eigenvalues --    0.80915   0.80941   0.81657   0.81994   0.82557
 Alpha virt. eigenvalues --    0.82910   0.83201   0.83959   0.84324   0.85014
 Alpha virt. eigenvalues --    0.85600   0.85764   0.86046   0.86381   0.86873
 Alpha virt. eigenvalues --    0.87443   0.87778   0.88478   0.88789   0.89126
 Alpha virt. eigenvalues --    0.89240   0.90006   0.90058   0.90629   0.90674
 Alpha virt. eigenvalues --    0.90985   0.91224   0.91415   0.92148   0.92389
 Alpha virt. eigenvalues --    0.92754   0.93159   0.93670   0.93936   0.94351
 Alpha virt. eigenvalues --    0.94762   0.94900   0.95336   0.95962   0.96372
 Alpha virt. eigenvalues --    0.96858   0.97393   0.98076   0.98261   0.98695
 Alpha virt. eigenvalues --    0.99263   0.99675   0.99996   1.00432   1.00742
 Alpha virt. eigenvalues --    1.00939   1.01246   1.01658   1.02032   1.02318
 Alpha virt. eigenvalues --    1.02572   1.02655   1.03016   1.03284   1.03634
 Alpha virt. eigenvalues --    1.04602   1.04759   1.05017   1.05359   1.05499
 Alpha virt. eigenvalues --    1.06032   1.06562   1.06869   1.07559   1.07720
 Alpha virt. eigenvalues --    1.08197   1.09006   1.09684   1.09827   1.10905
 Alpha virt. eigenvalues --    1.11182   1.11943   1.12313   1.12775   1.13000
 Alpha virt. eigenvalues --    1.13167   1.13982   1.14519   1.14880   1.15123
 Alpha virt. eigenvalues --    1.15554   1.15699   1.16402   1.16839   1.17140
 Alpha virt. eigenvalues --    1.17220   1.17705   1.18052   1.18338   1.19087
 Alpha virt. eigenvalues --    1.19409   1.19600   1.19714   1.20021   1.20331
 Alpha virt. eigenvalues --    1.20586   1.20889   1.21501   1.21633   1.21882
 Alpha virt. eigenvalues --    1.22154   1.23172   1.23599   1.23865   1.24268
 Alpha virt. eigenvalues --    1.25146   1.25840   1.26358   1.26469   1.26766
 Alpha virt. eigenvalues --    1.26871   1.27319   1.28274   1.28440   1.28767
 Alpha virt. eigenvalues --    1.29134   1.29480   1.29849   1.30724   1.30921
 Alpha virt. eigenvalues --    1.31334   1.32443   1.32763   1.33006   1.33326
 Alpha virt. eigenvalues --    1.33792   1.34203   1.34478   1.35133   1.35572
 Alpha virt. eigenvalues --    1.36249   1.36279   1.36433   1.36866   1.37113
 Alpha virt. eigenvalues --    1.37286   1.37560   1.38016   1.38572   1.39266
 Alpha virt. eigenvalues --    1.39538   1.39685   1.40002   1.40759   1.40868
 Alpha virt. eigenvalues --    1.41252   1.41792   1.42007   1.42752   1.43144
 Alpha virt. eigenvalues --    1.43474   1.43586   1.43956   1.44391   1.44969
 Alpha virt. eigenvalues --    1.45221   1.45415   1.45895   1.46196   1.47283
 Alpha virt. eigenvalues --    1.47671   1.47817   1.48035   1.48308   1.49016
 Alpha virt. eigenvalues --    1.49500   1.49719   1.50560   1.50733   1.51663
 Alpha virt. eigenvalues --    1.52566   1.53316   1.53617   1.54249   1.54543
 Alpha virt. eigenvalues --    1.54970   1.56351   1.57325   1.57543   1.58032
 Alpha virt. eigenvalues --    1.58384   1.58535   1.58981   1.59522   1.59953
 Alpha virt. eigenvalues --    1.60517   1.60931   1.61316   1.61687   1.62384
 Alpha virt. eigenvalues --    1.63197   1.63600   1.64198   1.64945   1.65247
 Alpha virt. eigenvalues --    1.65773   1.66360   1.67158   1.68071   1.68708
 Alpha virt. eigenvalues --    1.69318   1.69771   1.70458   1.70732   1.71009
 Alpha virt. eigenvalues --    1.71827   1.73410   1.73944   1.74286   1.74638
 Alpha virt. eigenvalues --    1.75488   1.76383   1.77141   1.77183   1.78110
 Alpha virt. eigenvalues --    1.78560   1.78981   1.79274   1.79848   1.80439
 Alpha virt. eigenvalues --    1.81007   1.81445   1.81663   1.82088   1.82194
 Alpha virt. eigenvalues --    1.82550   1.82916   1.83290   1.84111   1.84315
 Alpha virt. eigenvalues --    1.84600   1.85248   1.85582   1.85966   1.86201
 Alpha virt. eigenvalues --    1.86353   1.86766   1.87171   1.87734   1.88411
 Alpha virt. eigenvalues --    1.88489   1.88759   1.89516   1.89606   1.90682
 Alpha virt. eigenvalues --    1.91083   1.91660   1.91778   1.91822   1.92305
 Alpha virt. eigenvalues --    1.92807   1.92980   1.93531   1.93632   1.93844
 Alpha virt. eigenvalues --    1.93979   1.94140   1.94443   1.94698   1.94981
 Alpha virt. eigenvalues --    1.95537   1.95817   1.96217   1.96332   1.96604
 Alpha virt. eigenvalues --    1.96687   1.97064   1.97221   1.97690   1.98551
 Alpha virt. eigenvalues --    1.98759   1.99286   1.99607   2.00106   2.00345
 Alpha virt. eigenvalues --    2.00541   2.00867   2.00941   2.01124   2.01711
 Alpha virt. eigenvalues --    2.02385   2.03038   2.03228   2.03549   2.03804
 Alpha virt. eigenvalues --    2.04571   2.04940   2.05825   2.06080   2.06100
 Alpha virt. eigenvalues --    2.06870   2.07545   2.07856   2.08969   2.09694
 Alpha virt. eigenvalues --    2.09833   2.09848   2.10148   2.10440   2.10944
 Alpha virt. eigenvalues --    2.11616   2.11804   2.11923   2.12311   2.12849
 Alpha virt. eigenvalues --    2.13158   2.13524   2.14069   2.14513   2.14883
 Alpha virt. eigenvalues --    2.14958   2.15301   2.15560   2.16222   2.16530
 Alpha virt. eigenvalues --    2.17059   2.17860   2.18421   2.18780   2.19335
 Alpha virt. eigenvalues --    2.20054   2.20241   2.21123   2.21467   2.21840
 Alpha virt. eigenvalues --    2.22555   2.23099   2.24143   2.24773   2.25200
 Alpha virt. eigenvalues --    2.25619   2.26112   2.26380   2.26712   2.27112
 Alpha virt. eigenvalues --    2.27239   2.27462   2.28023   2.28135   2.28852
 Alpha virt. eigenvalues --    2.29318   2.29570   2.30597   2.31259   2.32045
 Alpha virt. eigenvalues --    2.32582   2.33291   2.33551   2.33893   2.34155
 Alpha virt. eigenvalues --    2.34209   2.34484   2.34935   2.35183   2.36608
 Alpha virt. eigenvalues --    2.36970   2.37140   2.37398   2.37978   2.38260
 Alpha virt. eigenvalues --    2.39340   2.40680   2.42051   2.42156   2.42803
 Alpha virt. eigenvalues --    2.44180   2.44601   2.45266   2.45302   2.45892
 Alpha virt. eigenvalues --    2.46945   2.47234   2.47654   2.47916   2.48219
 Alpha virt. eigenvalues --    2.48416   2.49488   2.49554   2.49874   2.50725
 Alpha virt. eigenvalues --    2.51358   2.51512   2.52220   2.52307   2.52933
 Alpha virt. eigenvalues --    2.53321   2.53828   2.54464   2.54617   2.55019
 Alpha virt. eigenvalues --    2.55739   2.56153   2.56350   2.56908   2.56954
 Alpha virt. eigenvalues --    2.57117   2.57389   2.57692   2.58168   2.58609
 Alpha virt. eigenvalues --    2.60413   2.62281   2.62795   2.63469   2.63580
 Alpha virt. eigenvalues --    2.63633   2.64210   2.65217   2.65825   2.67413
 Alpha virt. eigenvalues --    2.67731   2.67861   2.68108   2.68331   2.68505
 Alpha virt. eigenvalues --    2.69043   2.69274   2.69624   2.69722   2.69853
 Alpha virt. eigenvalues --    2.70295   2.70436   2.71107   2.71279   2.72514
 Alpha virt. eigenvalues --    2.72854   2.73242   2.74577   2.74775   2.75095
 Alpha virt. eigenvalues --    2.75564   2.76265   2.76580   2.77778   2.77946
 Alpha virt. eigenvalues --    2.78479   2.79301   2.80040   2.80232   2.80475
 Alpha virt. eigenvalues --    2.80907   2.81498   2.81794   2.82399   2.82545
 Alpha virt. eigenvalues --    2.83618   2.83952   2.84554   2.84678   2.85102
 Alpha virt. eigenvalues --    2.85735   2.86252   2.87402   2.87739   2.87985
 Alpha virt. eigenvalues --    2.88891   2.90045   2.90796   2.91617   2.93522
 Alpha virt. eigenvalues --    2.93881   2.94259   2.94589   2.95056   2.95677
 Alpha virt. eigenvalues --    2.96167   2.96709   2.98330   2.98923   2.99107
 Alpha virt. eigenvalues --    2.99548   3.00740   3.01035   3.01781   3.02165
 Alpha virt. eigenvalues --    3.03036   3.03306   3.04108   3.04773   3.05309
 Alpha virt. eigenvalues --    3.05418   3.06262   3.08540   3.11530   3.15811
 Alpha virt. eigenvalues --    3.16051   3.18725   3.20908   3.21828   3.22426
 Alpha virt. eigenvalues --    3.22999   3.23615   3.23804   3.24154   3.26311
 Alpha virt. eigenvalues --    3.27381   3.27781   3.28536   3.29161   3.29315
 Alpha virt. eigenvalues --    3.29700   3.32401   3.33486   3.35730   3.35926
 Alpha virt. eigenvalues --    3.37181   3.39200   3.39625   3.40339   3.41246
 Alpha virt. eigenvalues --    3.41871   3.42753   3.43928   3.44827   3.45223
 Alpha virt. eigenvalues --    3.45455   3.46117   3.46788   3.47540   3.48465
 Alpha virt. eigenvalues --    3.49450   3.49764   3.50954   3.52450   3.52830
 Alpha virt. eigenvalues --    3.53317   3.54722   3.55342   3.55942   3.56647
 Alpha virt. eigenvalues --    3.57559   3.59849   3.60795   3.62545   3.67926
 Alpha virt. eigenvalues --    3.70930   3.86950   3.87817   3.90191   8.84692
 Alpha virt. eigenvalues --   11.50716  11.67903
          Condensed to atoms (all electrons):
 Mulliken charges:
               1
     1  Zn   0.515769
     2  O   -0.924479
     3  O   -0.830728
     4  O   -0.525506
     5  O   -0.436413
     6  C    0.455905
     7  Zn   0.680774
     8  O   -0.467879
     9  O   -0.463932
    10  O   -0.401613
    11  O   -0.450543
    12  C    0.477695
    13  C    0.512587
    14  H    0.088520
    15  H    0.091201
    16  H    0.083634
    17  C   -0.289674
    18  C   -0.003723
    19  C   -0.489881
    20  C   -0.027509
    21  C   -0.213173
    22  N    0.288303
    23  H    0.147613
    24  H    0.173584
    25  H    0.155280
    26  H    0.146078
    27  H    0.190100
    28  C   -0.237794
    29  C    0.061001
    30  C   -0.541104
    31  C    0.162425
    32  C   -0.230387
    33  N    0.161748
    34  H    0.148145
    35  H    0.192468
    36  H    0.147429
    37  H    0.145015
    38  H    0.182411
    39  H    0.540777
    40  H    0.451094
    41  H    0.375727
    42  C   -0.318473
    43  C    0.141768
    44  C   -0.338565
    45  O   -0.342680
    46  C   -0.075108
    47  C    0.022326
    48  C   -0.126993
    49  O   -0.231442
    50  H    0.132301
    51  H    0.128805
    52  H    0.134434
    53  H    0.189818
    54  H    0.113384
    55  H    0.181681
    56  H    0.132037
    57  H    0.162983
    58  H    0.159762
    59  H    0.221626
    60  N   -0.453554
    61  C   -0.451537
    62  C   -0.482593
    63  H    0.227958
    64  H    0.179270
    65  H    0.160974
    66  H    0.143907
    67  H    0.197343
    68  C    0.037877
    69  C   -0.704240
    70  H    0.172564
    71  H    0.242987
    72  H    0.165364
    73  H    0.156356
    74  H    0.156991
    75  C    0.223153
    76  C   -0.599092
    77  H    0.150882
    78  H    0.216877
    79  H    0.142956
    80  H    0.204180
    81  H    0.178822
    82  C    0.141392
    83  C   -0.515080
    84  H    0.151409
    85  H    0.218154
    86  H    0.159832
    87  H    0.141492
    88  H    0.196687
    89  Br  -0.765954
    90  C    0.505891
    91  O   -0.561912
    92  O   -0.267963
 Sum of Mulliken charges =   0.00000
 Mulliken charges with hydrogens summed into heavy atoms:
               1
     1  Zn   0.515769
     2  O   -0.548753
     3  O    0.161143
     4  O   -0.525506
     5  O   -0.436413
     6  C    0.544424
     7  Zn   0.680774
     8  O   -0.467879
     9  O   -0.463932
    10  O   -0.401613
    11  O   -0.450543
    12  C    0.568896
    13  C    0.596221
    17  C   -0.116090
    18  C    0.151557
    19  C   -0.342268
    20  C    0.118569
    21  C   -0.023073
    22  N    0.288303
    28  C   -0.045326
    29  C    0.208430
    30  C   -0.392959
    31  C    0.307440
    32  C   -0.047976
    33  N    0.161748
    42  C   -0.057367
    43  C    0.276202
    44  C   -0.035363
    45  O   -0.342680
    46  C    0.238610
    47  C    0.185309
    48  C    0.254395
    49  O   -0.231442
    60  N   -0.453554
    61  C   -0.044309
    62  C    0.019631
    68  C    0.453428
    69  C   -0.225530
    75  C    0.590913
    76  C   -0.073134
    82  C    0.510955
    83  C   -0.017069
    89  Br  -0.765954
    90  C    0.505891
    91  O   -0.561912
    92  O   -0.267963
 Electronic spatial extent (au):  <R**2>=          47902.5820
 Charge=              0.0000 electrons
 Dipole moment (field-independent basis, Debye):
    X=             -7.8423    Y=              1.8997    Z=              2.4040  Tot=              8.4196
 Quadrupole moment (field-independent basis, Debye-Ang):
   XX=           -276.6238   YY=           -281.8808   ZZ=           -321.6303
   XY=             67.0010   XZ=             44.6114   YZ=            -22.5506
 Traceless Quadrupole moment (field-independent basis, Debye-Ang):
   XX=             16.7545   YY=             11.4975   ZZ=            -28.2520
   XY=             67.0010   XZ=             44.6114   YZ=            -22.5506
 Octapole moment (field-independent basis, Debye-Ang**2):
  XXX=          -1146.3625  YYY=            897.9261  ZZZ=           1856.8617  XYY=           -343.0463
  XXY=            261.8870  XXZ=            680.1986  XZZ=           -552.3394  YZZ=            372.5986
  YYZ=            720.4486  XYZ=           -169.7571
 Hexadecapole moment (field-independent basis, Debye-Ang**3):
 XXXX=         -29025.5861 YYYY=         -13768.3821 ZZZZ=         -17882.9972 XXXY=           4996.7460
 XXXZ=           5951.1734 YYYX=           4053.2299 YYYZ=          -5163.2567 ZZZX=           7047.5012
 ZZZY=          -5833.9354 XXYY=          -7180.4763 XXZZ=          -8463.8966 YYZZ=          -6046.3226
 XXYZ=          -2261.0570 YYXZ=           2484.6775 ZZXY=           2070.4108
 N-N= 7.436019079349D+03 E-N=-2.654347656503D+04  KE= 4.947147470106D+03
  Exact polarizability: 546.177  10.716 457.448 -34.384  34.132 418.008
 Approx polarizability: 717.571  43.724 659.456 -22.871   9.054 602.233
   1 Symmetry operations used in ECPInt.
 ECPInt:  NShTT=   71631 NPrTT=  319784 LenC2=   51898 LenP2D=  132378.
 LDataN:  DoStor=T MaxTD1= 7 Len=  274
 Calling FoFJK, ICntrl=    100127 FMM=F ISym2X=0 I1Cent= 0 IOpClX= 0 NMat=1 NMatS=1 NMatT=0.
 -------------------------------------------------------------------
 Center     Atomic                   Forces (Hartrees/Bohr)
 Number     Number              X              Y              Z
 -------------------------------------------------------------------
      1       30           0.007914384    0.003988949    0.001383523
      2        8           0.001624078   -0.009888659    0.002614997
      3        8           0.005067453   -0.001736473   -0.005337006
      4        8          -0.000000000   -0.000000000   -0.000000000
      5        8          -0.000000000   -0.000000000   -0.000000000
      6        6          -0.000000000   -0.000000000   -0.000000000
      7       30          -0.008625972   -0.002242971    0.003438418
      8        8          -0.000000000   -0.000000000   -0.000000000
      9        8          -0.000000000   -0.000000000   -0.000000000
     10        8          -0.000000000   -0.000000000   -0.000000000
     11        8          -0.000000000   -0.000000000   -0.000000000
     12        6          -0.000000000   -0.000000000   -0.000000000
     13        6          -0.000000000   -0.000000000   -0.000000000
     14        1          -0.000000000   -0.000000000   -0.000000000
     15        1          -0.000000000   -0.000000000   -0.000000000
     16        1          -0.000000000   -0.000000000   -0.000000000
     17        6          -0.000000000   -0.000000000   -0.000000000
     18        6          -0.000000000   -0.000000000   -0.000000000
     19        6          -0.000000000   -0.000000000   -0.000000000
     20        6          -0.000000000   -0.000000000   -0.000000000
     21        6          -0.000000000   -0.000000000   -0.000000000
     22        7          -0.000000000   -0.000000000   -0.000000000
     23        1          -0.000000000   -0.000000000   -0.000000000
     24        1          -0.000000000   -0.000000000   -0.000000000
     25        1          -0.000000000   -0.000000000   -0.000000000
     26        1          -0.000000000   -0.000000000   -0.000000000
     27        1          -0.000000000   -0.000000000   -0.000000000
     28        6          -0.000000000   -0.000000000   -0.000000000
     29        6          -0.000000000   -0.000000000   -0.000000000
     30        6          -0.000000000   -0.000000000   -0.000000000
     31        6          -0.000000000   -0.000000000   -0.000000000
     32        6          -0.000000000   -0.000000000   -0.000000000
     33        7          -0.000000000   -0.000000000   -0.000000000
     34        1          -0.000000000   -0.000000000   -0.000000000
     35        1          -0.000000000   -0.000000000   -0.000000000
     36        1          -0.000000000   -0.000000000   -0.000000000
     37        1          -0.000000000   -0.000000000   -0.000000000
     38        1          -0.000000000   -0.000000000   -0.000000000
     39        1           0.003630211   -0.001233447    0.005553420
     40        1          -0.008143493   -0.002153488    0.000106486
     41        1          -0.000713734    0.010696523   -0.006588009
     42        6          -0.000942179    0.000585870    0.000772177
     43        6           0.000752846    0.000728767   -0.000869728
     44        6          -0.002927766    0.006732430    0.013570262
     45        8          -0.004513459    0.009017501   -0.013245189
     46        6           0.007247985   -0.014992211   -0.002122183
     47        6          -0.014549967    0.010820263    0.003415253
     48        6          -0.010870575    0.015369016    0.006293199
     49        8          -0.012706776   -0.016361205    0.004685655
     50        1          -0.000544346   -0.000611448    0.000371528
     51        1          -0.000262485    0.000719785   -0.000057773
     52        1           0.000217396   -0.000929476   -0.000099058
     53        1           0.000743010   -0.000538686    0.000781579
     54        1           0.000161004    0.000069286    0.000870024
     55        1           0.000691408   -0.000493354   -0.000070343
     56        1           0.001022105   -0.000368375   -0.000011533
     57        1           0.000007525    0.000483881    0.000902617
     58        1          -0.000136565   -0.000341243    0.000943596
     59        1          -0.000112829    0.000116824    0.000494364
     60        7          -0.000146125   -0.000355301    0.001045495
     61        6          -0.004106822   -0.001572063   -0.002475502
     62        6          -0.000044362   -0.000921929   -0.000158213
     63        1          -0.001145765    0.000258102    0.000258556
     64        1          -0.000142079   -0.000520281   -0.000765594
     65        1          -0.000457890   -0.000736542   -0.000321036
     66        1           0.000082571    0.000031728    0.000329890
     67        1           0.000119522   -0.000199578   -0.000301071
     68        6           0.003904761   -0.004563725   -0.000045362
     69        6           0.000582281    0.000199882    0.000210780
     70        1          -0.000049053   -0.000400454    0.000185533
     71        1           0.000457114   -0.000157713   -0.001174156
     72        1           0.000712578   -0.000240548   -0.000185219
     73        1          -0.000037739    0.000203030    0.000426476
     74        1           0.000017815    0.000432661   -0.000246365
     75        6           0.002190745    0.004212776   -0.003860051
     76        6          -0.000015843    0.000366244   -0.000382659
     77        1           0.000551332    0.000360972    0.000097249
     78        1           0.000263253   -0.000590875   -0.000837797
     79        1          -0.000313146    0.000738909   -0.000332686
     80        1          -0.000867241   -0.000226103    0.000198824
     81        1          -0.000660612   -0.000181824   -0.000131590
     82        6          -0.000764203    0.002941359    0.003941186
     83        6          -0.000199261   -0.000244185    0.000521636
     84        1           0.000478027    0.000390600    0.000267455
     85        1          -0.001293046    0.000095039    0.000480589
     86        1          -0.000038625   -0.000085470    0.000870650
     87        1           0.000156743   -0.000356413   -0.000024009
     88        1          -0.000532449    0.000094954   -0.000281146
     89       35           0.000085988   -0.000364946   -0.001082157
     90        6           0.002778882   -0.004461087   -0.001098794
     91        8           0.023133712   -0.020749236   -0.007674504
     92        8           0.014389512    0.015155798   -0.006580322
 -------------------------------------------------------------------
 Cartesian Forces:  Max     0.023133712 RMS     0.003938554

 GradGradGradGradGradGradGradGradGradGradGradGradGradGradGradGradGradGrad
 Berny optimization.
 Search for a local minimum.
 Step number   1 out of a maximum of  286
 All quantities printed in internal units (Hartrees-Bohrs-Radians)
 Second derivative matrix not updated -- analytic derivatives used.
 ITU=  0
     Eigenvalues ---    0.00001   0.00004   0.00007   0.00018   0.00022
     Eigenvalues ---    0.00026   0.00038   0.00042   0.00049   0.00056
     Eigenvalues ---    0.00064   0.00075   0.00089   0.00108   0.00119
     Eigenvalues ---    0.00131   0.00161   0.00206   0.00259   0.00270
     Eigenvalues ---    0.00306   0.00323   0.00358   0.00394   0.00465
     Eigenvalues ---    0.00470   0.00584   0.00644   0.00668   0.00721
     Eigenvalues ---    0.00813   0.00826   0.00912   0.01044   0.01114
     Eigenvalues ---    0.01150   0.01297   0.01345   0.01394   0.01459
     Eigenvalues ---    0.01523   0.01607   0.01896   0.01942   0.02099
     Eigenvalues ---    0.02269   0.02349   0.02414   0.02649   0.03007
     Eigenvalues ---    0.03168   0.03448   0.03573   0.03668   0.03733
     Eigenvalues ---    0.03800   0.04253   0.04324   0.04442   0.04636
     Eigenvalues ---    0.04727   0.05167   0.05330   0.05494   0.05513
     Eigenvalues ---    0.05571   0.05969   0.06108   0.06480   0.06753
     Eigenvalues ---    0.06942   0.07036   0.07188   0.07351   0.07638
     Eigenvalues ---    0.07664   0.07778   0.07812   0.07872   0.08052
     Eigenvalues ---    0.08716   0.09236   0.09782   0.09818   0.10016
     Eigenvalues ---    0.10213   0.10297   0.10391   0.11048   0.11148
     Eigenvalues ---    0.11305   0.11382   0.11489   0.11580   0.12048
     Eigenvalues ---    0.12341   0.12960   0.13281   0.13478   0.13738
     Eigenvalues ---    0.13904   0.13958   0.14004   0.14248   0.14897
     Eigenvalues ---    0.14954   0.14993   0.15694   0.16059   0.16310
     Eigenvalues ---    0.16704   0.17750   0.18567   0.18862   0.19627
     Eigenvalues ---    0.20241   0.20329   0.20546   0.21221   0.22130
     Eigenvalues ---    0.24296   0.24901   0.30459   0.31683   0.31987
     Eigenvalues ---    0.32388   0.33561   0.35448   0.37542   0.40797
     Eigenvalues ---    0.41255   0.44402   0.46455   0.48023   0.50104
     Eigenvalues ---    0.50152   0.50568   0.54669   0.55998   0.60308
     Eigenvalues ---    0.60774   0.61260   0.61960   0.63011   0.67676
     Eigenvalues ---    0.69734   0.73306   0.75610   0.76804   0.78026
     Eigenvalues ---    0.78386   0.80693   0.82214   0.82301   0.83150
     Eigenvalues ---    0.83609   0.84062   0.85094   0.85945   0.86339
     Eigenvalues ---    0.87049   0.87491   0.88626   0.89991   0.92708
     Eigenvalues ---    0.94046   0.96018   0.96425   0.97340   0.97536
     Eigenvalues ---    0.98550   1.02745   1.45482   1.45875
 RFO step:  Lambda=-1.37363801D-02 EMin= 1.19329082D-05
 Linear search not attempted -- first point.
 Maximum step size (   0.300) exceeded in Quadratic search.
    -- Step size scaled by   0.936
 Variable       Old X    -DE/DX   Delta X   Delta X   Delta X     New X
                                 (Linear)    (Quad)   (Total)
    X1       -5.08673   0.00791   0.00000   0.05916   0.05916  -5.02756
    Y1       -0.23622   0.00399   0.00000   0.01325   0.01325  -0.22297
    Z1       -0.28453   0.00138   0.00000  -0.00725  -0.00725  -0.29178
    X2       -2.27707   0.00162   0.00000   0.02170   0.02170  -2.25537
    Y2       -2.54461  -0.00989   0.00000  -0.02725  -0.02725  -2.57186
    Z2       -1.71613   0.00261   0.00000  -0.01959  -0.01959  -1.73573
    X3        1.35669   0.00507   0.00000   0.02430   0.02430   1.38099
    Y3        0.36636  -0.00174   0.00000   0.00685   0.00685   0.37321
    Z3       -1.32873  -0.00534   0.00000  -0.11165  -0.11165  -1.44038
    X4       -3.66700  -0.00000   0.00000   0.00000   0.00000  -3.66700
    Y4       -1.20542  -0.00000   0.00000   0.00000   0.00000  -1.20542
    Z4        3.25893  -0.00000   0.00000   0.00000   0.00000   3.25893
    X5       -0.70429  -0.00000   0.00000   0.00000   0.00000  -0.70429
    Y5        1.91028  -0.00000   0.00000   0.00000   0.00000   1.91028
    Z5        3.62255  -0.00000   0.00000   0.00000   0.00000   3.62255
    X6       -2.01960  -0.00000   0.00000   0.00000   0.00000  -2.01960
    Y6        0.10841  -0.00000   0.00000   0.00000   0.00000   0.10841
    Z6        4.45388  -0.00000   0.00000   0.00000   0.00000   4.45388
    X7       -0.34506  -0.00863   0.00000  -0.05067  -0.05067  -0.39574
    Y7        3.57417  -0.00224   0.00000  -0.02197  -0.02197   3.55220
    Z7       -0.14548   0.00344   0.00000   0.02241   0.02241  -0.12307
    X8       -3.08040  -0.00000   0.00000   0.00000   0.00000  -3.08040
    Y8        6.08644  -0.00000   0.00000   0.00000   0.00000   6.08644
    Z8        1.02173  -0.00000   0.00000   0.00000   0.00000   1.02173
    X9       -6.32125  -0.00000   0.00000   0.00000   0.00000  -6.32125
    Y9        3.26012  -0.00000   0.00000   0.00000   0.00000   3.26012
    Z9        1.36098  -0.00000   0.00000   0.00000   0.00000   1.36098
   X10       -2.05141  -0.00000   0.00000   0.00000   0.00000  -2.05141
   Y10        3.75065  -0.00000   0.00000   0.00000   0.00000   3.75065
   Z10       -3.89425  -0.00000   0.00000   0.00000   0.00000  -3.89425
   X11       -5.65738  -0.00000   0.00000   0.00000   0.00000  -5.65738
   Y11        1.39334  -0.00000   0.00000   0.00000   0.00000   1.39334
   Z11       -3.80093  -0.00000   0.00000   0.00000   0.00000  -3.80093
   X12       -5.32107  -0.00000   0.00000   0.00000   0.00000  -5.32107
   Y12        5.42457  -0.00000   0.00000   0.00000   0.00000   5.42457
   Z12        1.58880  -0.00000   0.00000   0.00000   0.00000   1.58880
   X13       -4.06455  -0.00000   0.00000   0.00000   0.00000  -4.06455
   Y13        2.87770  -0.00000   0.00000   0.00000   0.00000   2.87770
   Z13       -4.83599  -0.00000   0.00000   0.00000   0.00000  -4.83599
   X14       -1.71602  -0.00000   0.00000   0.00000   0.00000  -1.71602
   Y14       -0.44338  -0.00000   0.00000   0.00000   0.00000  -0.44338
   Z14        6.46269  -0.00000   0.00000   0.00000   0.00000   6.46269
   X15       -6.55099  -0.00000   0.00000   0.00000   0.00000  -6.55099
   Y15        6.93289  -0.00000   0.00000   0.00000   0.00000   6.93289
   Z15        2.38283  -0.00000   0.00000   0.00000   0.00000   2.38283
   X16       -4.51509  -0.00000   0.00000   0.00000   0.00000  -4.51509
   Y16        3.47021  -0.00000   0.00000   0.00000   0.00000   3.47021
   Z16       -6.80091  -0.00000   0.00000   0.00000   0.00000  -6.80091
   X17        4.89701  -0.00000   0.00000   0.00000   0.00000   4.89701
   Y17        5.40406  -0.00000   0.00000   0.00000   0.00000   5.40406
   Z17       -1.04149  -0.00000   0.00000   0.00000   0.00000  -1.04149
   X18        7.00826  -0.00000   0.00000   0.00000   0.00000   7.00826
   Y18        7.00675  -0.00000   0.00000   0.00000   0.00000   7.00675
   Z18       -1.01544  -0.00000   0.00000   0.00000   0.00000  -1.01544
   X19        6.73884  -0.00000   0.00000   0.00000   0.00000   6.73884
   Y19        9.46134  -0.00000   0.00000   0.00000   0.00000   9.46134
   Z19       -0.03998  -0.00000   0.00000   0.00000   0.00000  -0.03998
   X20        4.36501  -0.00000   0.00000   0.00000   0.00000   4.36501
   Y20       10.23291  -0.00000   0.00000   0.00000   0.00000  10.23291
   Z20        0.86765  -0.00000   0.00000   0.00000   0.00000   0.86765
   X21        2.34497  -0.00000   0.00000   0.00000   0.00000   2.34497
   Y21        8.51926  -0.00000   0.00000   0.00000   0.00000   8.51926
   Z21        0.77554  -0.00000   0.00000   0.00000   0.00000   0.77554
   X22        2.61528  -0.00000   0.00000   0.00000   0.00000   2.61528
   Y22        6.15252  -0.00000   0.00000   0.00000   0.00000   6.15252
   Z22       -0.15606  -0.00000   0.00000   0.00000   0.00000  -0.15606
   X23        8.35087  -0.00000   0.00000   0.00000   0.00000   8.35087
   Y23       10.75330  -0.00000   0.00000   0.00000   0.00000  10.75330
   Z23        0.01090  -0.00000   0.00000   0.00000   0.00000   0.01090
   X24        4.97028  -0.00000   0.00000   0.00000   0.00000   4.97028
   Y24        3.46979  -0.00000   0.00000   0.00000   0.00000   3.46979
   Z24       -1.76621  -0.00000   0.00000   0.00000   0.00000  -1.76621
   X25        8.81639  -0.00000   0.00000   0.00000   0.00000   8.81639
   Y25        6.33064  -0.00000   0.00000   0.00000   0.00000   6.33064
   Z25       -1.74506  -0.00000   0.00000   0.00000   0.00000  -1.74506
   X26        4.07193  -0.00000   0.00000   0.00000   0.00000   4.07193
   Y26       12.12530  -0.00000   0.00000   0.00000   0.00000  12.12530
   Z26        1.63740  -0.00000   0.00000   0.00000   0.00000   1.63740
   X27        0.45209  -0.00000   0.00000   0.00000   0.00000   0.45209
   Y27        9.00184  -0.00000   0.00000   0.00000   0.00000   9.00184
   Z27        1.44468  -0.00000   0.00000   0.00000   0.00000   1.44468
   X28       -8.94747  -0.00000   0.00000   0.00000   0.00000  -8.94747
   Y28       -3.75931  -0.00000   0.00000   0.00000   0.00000  -3.75931
   Z28        1.92471  -0.00000   0.00000   0.00000   0.00000   1.92471
   X29      -11.13792  -0.00000   0.00000   0.00000   0.00000 -11.13792
   Y29       -5.24484  -0.00000   0.00000   0.00000   0.00000  -5.24484
   Z29        2.05762  -0.00000   0.00000   0.00000   0.00000   2.05762
   X30      -12.76454  -0.00000   0.00000   0.00000   0.00000 -12.76454
   Y30       -5.31626  -0.00000   0.00000   0.00000   0.00000  -5.31626
   Z30       -0.04021  -0.00000   0.00000   0.00000   0.00000  -0.04021
   X31      -12.14445  -0.00000   0.00000   0.00000   0.00000 -12.14445
   Y31       -3.89762  -0.00000   0.00000   0.00000   0.00000  -3.89762
   Z31       -2.19724  -0.00000   0.00000   0.00000   0.00000  -2.19724
   X32       -9.92068  -0.00000   0.00000   0.00000   0.00000  -9.92068
   Y32       -2.45560  -0.00000   0.00000   0.00000   0.00000  -2.45560
   Z32       -2.18360  -0.00000   0.00000   0.00000   0.00000  -2.18360
   X33       -8.35500  -0.00000   0.00000   0.00000   0.00000  -8.35500
   Y33       -2.39626  -0.00000   0.00000   0.00000   0.00000  -2.39626
   Z33       -0.15913  -0.00000   0.00000   0.00000   0.00000  -0.15913
   X34      -14.48640  -0.00000   0.00000   0.00000   0.00000 -14.48640
   Y34       -6.45744  -0.00000   0.00000   0.00000   0.00000  -6.45744
   Z34        0.00586  -0.00000   0.00000   0.00000   0.00000   0.00586
   X35       -7.60690  -0.00000   0.00000   0.00000   0.00000  -7.60690
   Y35       -3.62292  -0.00000   0.00000   0.00000   0.00000  -3.62292
   Z35        3.48999  -0.00000   0.00000   0.00000   0.00000   3.48999
   X36      -11.54815  -0.00000   0.00000   0.00000   0.00000 -11.54815
   Y36       -6.31596  -0.00000   0.00000   0.00000   0.00000  -6.31596
   Z36        3.77316  -0.00000   0.00000   0.00000   0.00000   3.77316
   X37      -13.35563  -0.00000   0.00000   0.00000   0.00000 -13.35563
   Y37       -3.89645  -0.00000   0.00000   0.00000   0.00000  -3.89645
   Z37       -3.86803  -0.00000   0.00000   0.00000   0.00000  -3.86803
   X38       -9.33569  -0.00000   0.00000   0.00000   0.00000  -9.33569
   Y38       -1.30653  -0.00000   0.00000   0.00000   0.00000  -1.30653
   Z38       -3.79691  -0.00000   0.00000   0.00000   0.00000  -3.79691
   X39       -0.05292   0.00363   0.00000   0.04599   0.04599  -0.00693
   Y39       -1.05267  -0.00123   0.00000  -0.01277  -0.01277  -1.06544
   Z39       -1.60992   0.00555   0.00000   0.02674   0.02674  -1.58317
   X40        3.09838  -0.00814   0.00000  -0.02915  -0.02915   3.06923
   Y40       -0.22726  -0.00215   0.00000  -0.06239  -0.06239  -0.28965
   Z40       -1.15166   0.00011   0.00000   0.04512   0.04512  -1.10653
   X41       -2.05651  -0.00071   0.00000   0.00783   0.00783  -2.04868
   Y41       -3.88299   0.01070   0.00000   0.03353   0.03353  -3.84946
   Z41       -0.45744  -0.00659   0.00000   0.01481   0.01481  -0.44263
   X42       18.03340  -0.00094   0.00000  -0.01141  -0.01141  18.02198
   Y42      -10.55098   0.00059   0.00000   0.02172   0.02172 -10.52926
   Z42      -10.18598   0.00077   0.00000   0.00912   0.00912 -10.17687
   X43       15.91001   0.00075   0.00000  -0.00271  -0.00271  15.90730
   Y43       -9.84540   0.00073   0.00000   0.02467   0.02467  -9.82073
   Z43       -9.01100  -0.00087   0.00000   0.01914   0.01914  -8.99186
   X44       14.78309  -0.00293   0.00000  -0.00259  -0.00259  14.78049
   Y44       -7.25674   0.00673   0.00000   0.03385   0.03385  -7.22289
   Z44       -9.15679   0.01357   0.00000   0.04827   0.04827  -9.10852
   X45       14.41529  -0.00451   0.00000  -0.00947  -0.00947  14.40582
   Y45       -6.35686   0.00902   0.00000   0.01689   0.01689  -6.33997
   Z45       -6.54574  -0.01325   0.00000  -0.01538  -0.01538  -6.56112
   X46       13.02176   0.00725   0.00000   0.01212   0.01212  13.03388
   Y46       -3.99694  -0.01499   0.00000  -0.04093  -0.04093  -4.03787
   Z46       -6.36323  -0.00212   0.00000  -0.00492  -0.00492  -6.36815
   X47       11.88414  -0.01455   0.00000  -0.02341  -0.02341  11.86073
   Y47       -4.09898   0.01082   0.00000   0.01187   0.01187  -4.08711
   Z47       -3.73222   0.00342   0.00000  -0.00239  -0.00239  -3.73460
   X48        9.87621  -0.01087   0.00000  -0.02517  -0.02517   9.85104
   Y48       -6.19950   0.01537   0.00000   0.02941   0.02941  -6.17010
[...]
 0,-0.00314492,-0.00053465,-0.00070132,0.76195493,0.00124701,0.00075806
 ,0.00034965,-0.00274621,-0.00334976,-0.00112343,-0.01201370,0.00064321
 ,-0.00231643,0.,0.,0.,0.,0.,0.,0.,0.,0.,0.00406758,-0.00170546,-0.0005
 7195,0.,0.,0.,0.,0.,0.,0.,0.,0.,0.,0.,0.,0.,0.,0.,0.,0.,0.,0.,0.,0.,0.
 ,0.,0.,0.,0.,0.,0.,0.,0.,0.,0.,0.,0.,0.,0.,0.,0.,0.,0.,0.,0.,0.,0.,0.,
 0.,0.,0.,0.,0.,0.,0.,0.,0.,0.,0.,0.,0.,0.,0.,0.,0.,0.,0.,0.,0.,0.,0.,0
 .,0.,0.,0.,0.,0.,0.,0.,0.,0.,0.,0.,0.,0.,0.,0.,0.,0.,0.,0.,0.,0.,0.,0.
 ,0.,0.00490974,0.00481769,0.00075637,0.01384857,-0.00323806,0.00134652
 ,-0.00009500,0.00053454,0.00031661,-0.00006348,-0.00010469,0.00006169,
 0.00026353,0.00019332,-0.00031974,0.00101437,-0.00042811,-0.00031286,0
 .00092169,-0.00246726,-0.00291342,0.00024688,-0.00730763,0.00151531,0.
 02211191,0.02322655,-0.00455117,0.04892229,-0.04222359,-0.02054387,-0.
 07173946,-0.13492479,0.01973118,0.00001181,0.00003348,0.00003398,-0.00
 006388,-0.00005390,0.00000475,0.00004739,-0.00018952,-0.00006494,0.000
 12493,0.00012997,-0.00005674,-0.00018348,-0.00009762,0.00009079,0.0001
 9371,0.00058084,-0.00005812,-0.00151681,-0.00026683,0.00162485,0.00278
 886,-0.00667163,-0.00127953,-0.00544786,0.00029096,-0.00072376,-0.0076
 8348,0.00089514,0.00020273,0.00040161,-0.00104329,-0.00007899,0.000393
 31,0.00080647,0.00059021,0.00059773,0.00024221,0.00002536,-0.00069547,
 0.00049859,-0.00042959,0.00003326,0.00108255,0.00040665,-0.00038920,-0
 .00025945,0.00053934,-0.00019819,-0.00016838,-0.00018912,0.00017465,-0
 .00021275,0.00025265,-0.00056019,0.00026833,0.00012629,0.00019284,-0.0
 0011896,-0.00003864,0.00016285,-0.00008152,0.00017409,0.00007203,0.000
 11352,0.00012658,0.00008738,-0.00004309,0.00007905,-0.00006007,-0.0000
 2539,-0.00008863,-0.00013895,-0.00001264,0.00004569,-0.00028630,0.0016
 7343,-0.00055661,-0.00023560,-0.00138058,-0.00055453,0.00037244,-0.000
 34702,0.00032953,-0.00007728,0.00019657,0.00038522,0.00011168,0.000037
 30,0.00007039,0.00001293,0.00002904,-0.00006862,-0.00155994,0.00051603
 ,-0.00029795,-0.00013865,0.00006913,0.00023838,0.00013729,-0.00008847,
 -0.00015176,0.00000900,-0.00004407,-0.00013337,-0.00044785,0.00001610,
 -0.00012038,-0.00008811,-0.00004899,-0.00006503,0.00018137,-0.00007189
 ,0.00010382,-0.00020480,0.00015824,0.00003034,0.00107769,-0.00140354,0
 .00361948,-0.23872447,0.77419478,0.00086290,-0.00002434,0.00033476,-0.
 00155847,-0.00122161,-0.00062860,-0.00581600,0.00068311,-0.00114244,0.
 ,0.,0.,0.,0.,0.,0.,0.,0.,0.00164240,-0.00149970,0.00000827,0.,0.,0.,0.
 ,0.,0.,0.,0.,0.,0.,0.,0.,0.,0.,0.,0.,0.,0.,0.,0.,0.,0.,0.,0.,0.,0.,0.,
 0.,0.,0.,0.,0.,0.,0.,0.,0.,0.,0.,0.,0.,0.,0.,0.,0.,0.,0.,0.,0.,0.,0.,0
 .,0.,0.,0.,0.,0.,0.,0.,0.,0.,0.,0.,0.,0.,0.,0.,0.,0.,0.,0.,0.,0.,0.,0.
 ,0.,0.,0.,0.,0.,0.,0.,0.,0.,0.,0.,0.,0.,0.,0.,0.,0.,0.,0.,0.00219184,0
 .00202846,0.00054979,0.00650468,-0.00164188,-0.00003156,0.00018543,0.0
 0021553,0.00011476,-0.00006383,0.00015765,0.00004882,0.00003257,-0.000
 15221,0.00014687,0.00059263,-0.00038743,-0.00142171,-0.00120902,0.0015
 8494,0.00115343,0.00333550,-0.00311036,-0.00077174,0.01585555,-0.01394
 171,-0.01233958,-0.00083626,-0.01791568,-0.00729238,0.04776719,0.00789
 088,-0.07779147,-0.00006566,0.00005360,0.00000226,0.00000499,-0.000028
 23,-0.00001011,-0.00001436,0.00000659,-0.00006241,-0.00003760,-0.00000
 944,0.00015520,-0.00007699,-0.00005034,0.00017493,-0.00030827,-0.00018
 171,-0.00040653,-0.00016486,0.00025074,0.00017148,-0.00305047,0.005155
 59,0.00131113,-0.00077064,0.00094974,0.00015931,0.00498227,-0.00231401
 ,-0.00153198,0.00036714,-0.00021617,-0.00014487,-0.00034055,0.00000087
 ,0.00027655,0.00000998,-0.00005025,-0.00014294,-0.00046195,-0.00002846
 ,-0.00029513,-0.00008555,0.00037471,0.00024774,-0.00022454,0.00023391,
 0.00013146,-0.00002071,-0.00002078,-0.00006934,0.00019161,-0.00006062,
 0.00017175,-0.00017476,0.00021092,0.00005909,0.00006944,-0.00006605,-0
 .00000591,0.00000544,0.00000609,0.00000521,0.00001722,0.00001088,0.000
 11165,0.00004606,-0.00000228,0.00003414,-0.00002223,-0.00001668,-0.000
 04634,-0.00001439,0.00003144,0.00001340,-0.00009775,0.00004430,0.00006
 766,0.00007682,-0.00002284,-0.00012489,0.00003554,-0.00001163,0.000001
 86,0.00000640,0.00010523,0.00017775,0.00007453,0.00009039,0.00001896,-
 0.00014428,-0.00013444,-0.00005353,-0.00033741,-0.00005679,0.00017088,
 -0.00001165,0.00007557,0.00013163,0.00001013,-0.00004864,-0.00006988,0
 .00005823,0.00000477,-0.00002249,-0.00034660,-0.00003554,-0.00001290,-
 0.00003225,0.00000105,-0.00004036,0.00007512,-0.00002731,0.00003255,-0
 .00006593,0.00007868,-0.00001404,0.00082523,0.00079950,0.00110081,-0.2
 2409866,0.14218014,0.31411754,0.00194389,-0.00022822,-0.00017468,-0.00
 381665,-0.00259883,-0.00065996,-0.01702583,0.00338304,-0.00154307,0.,0
 .,0.,0.,0.,0.,0.,0.,0.,0.00289067,-0.00429595,-0.00134228,0.,0.,0.,0.,
 0.,0.,0.,0.,0.,0.,0.,0.,0.,0.,0.,0.,0.,0.,0.,0.,0.,0.,0.,0.,0.,0.,0.,0
 .,0.,0.,0.,0.,0.,0.,0.,0.,0.,0.,0.,0.,0.,0.,0.,0.,0.,0.,0.,0.,0.,0.,0.
 ,0.,0.,0.,0.,0.,0.,0.,0.,0.,0.,0.,0.,0.,0.,0.,0.,0.,0.,0.,0.,0.,0.,0.,
 0.,0.,0.,0.,0.,0.,0.,0.,0.,0.,0.,0.,0.,0.,0.,0.,0.,0.,0.,0.00485834,0.
 00533683,0.00050121,0.00460200,-0.00355380,-0.00164819,0.00029856,0.00
 031757,0.00005889,-0.00007844,0.00029656,0.00009819,-0.00001281,-0.000
 22081,0.00054285,0.00043978,-0.00020423,-0.00271216,-0.00254239,0.0017
 5938,0.00459515,0.00078121,0.00294937,-0.00347658,0.00242684,-0.017294
 49,0.00121229,0.00500338,-0.00159522,0.00117854,-0.07700736,0.03950070
 ,0.03803636,-0.00013314,0.00007170,-0.00004571,0.00000776,-0.00004318,
 -0.00000853,-0.00002826,0.00000026,-0.00013284,-0.00010915,0.00000752,
 0.00022899,-0.00016839,-0.00008847,0.00036174,-0.00035036,-0.00009760,
 -0.00018533,-0.00011244,-0.00003105,0.00008803,-0.00132381,0.00232592,
 0.00042582,0.00015723,0.00046696,-0.00009305,-0.00146660,0.00053174,-0
 .00085979,0.00019545,-0.00043337,-0.00052020,0.00015338,0.00023991,0.0
 0092570,0.00009375,-0.00002862,-0.00023910,-0.00069742,0.00029360,0.00
 009956,0.00042889,0.00057465,0.00024495,-0.00030622,-0.00007426,0.0003
 6367,-0.00010051,0.00001624,-0.00023723,0.00017849,-0.00008149,0.00023
 258,-0.00012585,0.00006739,0.00010162,0.00006115,-0.00002682,-0.000003
 99,0.00003868,0.00000631,0.00004835,0.00007787,0.00002940,0.00015431,0
 .00002407,-0.00000213,0.00004020,-0.00003005,-0.00004902,-0.00008607,-
 0.00002437,0.00001532,0.00002797,-0.00009031,0.00039119,-0.00009335,0.
 00025065,-0.00014611,-0.00003323,0.00003324,-0.00011239,0.00000225,0.0
 0006439,0.00018003,0.00027182,-0.00000393,-0.00000028,-0.00000447,-0.0
 0019744,-0.00015245,-0.00010733,-0.00051682,0.00031498,0.00008323,-0.0
 0015268,0.00017374,0.00045738,0.00006797,-0.00011486,-0.00014093,0.000
 05511,-0.00005620,-0.00011307,-0.00047037,-0.00000795,-0.00002253,-0.0
 0005347,-0.00002758,-0.00008955,0.00010220,-0.00001552,0.00006725,-0.0
 0013176,0.00012592,0.00003798,0.00192178,-0.00007345,0.00122608,-0.380
 23036,0.26454514,0.13514842,0.45206032,-0.00084429,-0.00042341,-0.0001
 2964,0.00190190,0.00217312,0.00057633,0.01051104,0.00124114,0.00206347
 ,0.,0.,0.,0.,0.,0.,0.,0.,0.,-0.00277433,0.00091136,0.00046009,0.,0.,0.
 ,0.,0.,0.,0.,0.,0.,0.,0.,0.,0.,0.,0.,0.,0.,0.,0.,0.,0.,0.,0.,0.,0.,0.,
 0.,0.,0.,0.,0.,0.,0.,0.,0.,0.,0.,0.,0.,0.,0.,0.,0.,0.,0.,0.,0.,0.,0.,0
 .,0.,0.,0.,0.,0.,0.,0.,0.,0.,0.,0.,0.,0.,0.,0.,0.,0.,0.,0.,0.,0.,0.,0.
 ,0.,0.,0.,0.,0.,0.,0.,0.,0.,0.,0.,0.,0.,0.,0.,0.,0.,0.,0.,0.,-0.002837
 87,-0.00362271,-0.00029235,-0.00864997,-0.00050600,-0.00102549,0.00012
 001,-0.00023983,-0.00014164,0.00006140,-0.00011671,-0.00006278,-0.0000
 7346,0.00005047,-0.00017590,-0.00052442,0.00020407,0.00143251,0.001144
 87,-0.00008427,-0.00155823,-0.00047740,-0.00001190,0.00120028,-0.00261
 062,0.00195648,0.00035125,-0.01436708,-0.00175700,0.00532264,0.0206106
 7,0.01932578,-0.00788807,0.00006187,-0.00004503,0.00001076,0.00001659,
 0.00003883,-0.00000062,-0.00000182,0.00006217,0.00008376,0.00001105,-0
 .00004654,-0.00009969,0.00015083,0.00008071,-0.00021352,0.00009048,-0.
 00010073,0.00013323,0.00048139,0.00018371,-0.00041723,0.00029728,-0.00
 005032,-0.00009310,0.00299857,-0.00111964,-0.00146565,0.00328633,-0.00
 084067,0.00049730,-0.00018879,0.00049734,0.00007922,-0.00024650,-0.000
 36220,-0.00022440,-0.00025823,-0.00010196,0.00001949,0.00044027,-0.000
 23075,0.00006543,0.00001093,-0.00054512,-0.00015858,0.00026937,0.00004
 777,-0.00031215,0.00011403,0.00009298,0.00012921,-0.00014734,0.0000876
 8,-0.00016084,0.00025911,-0.00014364,-0.00005725,-0.00008902,0.0000563
 1,0.00001205,-0.00006781,0.00002276,-0.00008458,-0.00004108,-0.0000556
 8,-0.00007809,-0.00004560,0.00001505,-0.00004093,0.00003122,0.00002176
 ,0.00005628,0.00005800,-0.00000089,-0.00002237,0.00014213,-0.00059484,
 0.00026275,0.00007594,0.00044113,0.00016643,-0.00011701,0.00013055,-0.
 00011708,0.00004400,-0.00012615,-0.00019109,-0.00002919,0.00000077,-0.
 00001289,0.00004366,0.00002487,0.00003051,0.00045680,-0.00021403,0.000
 09047,0.00005649,-0.00007972,-0.00020173,-0.00006717,0.00005729,0.0000
 9742,-0.00002337,0.00002406,0.00006726,0.00032293,0.00000457,0.0000425
 2,0.00005044,0.00002671,0.00004829,-0.00010248,0.00003263,-0.00005734,
 0.00011621,-0.00009734,-0.00001844,-0.00113824,0.00044879,-0.00163039,
 0.26638478,-0.34774874,-0.12416383,-0.32604148,0.40627452,-0.00027830,
 -0.00002437,-0.00052063,0.00026496,0.00036206,0.00046991,0.00020682,0.
 00025923,0.00304558,0.,0.,0.,0.,0.,0.,0.,0.,0.,-0.00064933,0.00032871,
 -0.00072142,0.,0.,0.,0.,0.,0.,0.,0.,0.,0.,0.,0.,0.,0.,0.,0.,0.,0.,0.,0
 .,0.,0.,0.,0.,0.,0.,0.,0.,0.,0.,0.,0.,0.,0.,0.,0.,0.,0.,0.,0.,0.,0.,0.
 ,0.,0.,0.,0.,0.,0.,0.,0.,0.,0.,0.,0.,0.,0.,0.,0.,0.,0.,0.,0.,0.,0.,0.,
 0.,0.,0.,0.,0.,0.,0.,0.,0.,0.,0.,0.,0.,0.,0.,0.,0.,0.,0.,0.,0.,0.,0.,0
 .,0.,0.,0.,-0.00056203,-0.00032555,-0.00018058,-0.00334290,0.00078013,
 -0.00433216,-0.00011768,-0.00015640,-0.00014359,0.00004210,-0.00008853
 ,-0.00002181,-0.00002239,0.00007672,-0.00011788,-0.00028352,0.00010281
 ,0.00077394,0.00068092,-0.00056804,-0.00109198,-0.00075091,0.00013933,
 0.00082979,0.00136386,0.00556272,0.00570376,-0.00009700,-0.00020722,0.
 00626370,0.03495760,-0.01398740,0.00254930,0.00003919,-0.00002918,0.00
 000133,-0.00000146,0.00001694,-0.00000049,0.00000335,0.00000586,0.0000
 3666,0.00001843,-0.00001046,-0.00008198,0.00005644,0.00003347,-0.00010
 508,0.00014227,0.00006895,-0.00000032,0.00007921,-0.00001825,-0.000098
 94,0.00122271,-0.00208276,-0.00087884,0.00126352,-0.00065780,-0.000875
 23,-0.00079138,0.00052347,0.00035108,-0.00021115,0.00003115,-0.0000792
 4,0.00013329,0.00015538,0.00021508,0.00014056,0.00001687,0.00002547,0.
 00008100,0.00004283,0.00014762,0.00030986,-0.00005583,-0.00015918,-0.0
 0000184,-0.00018475,0.00008897,-0.00006126,0.00000742,-0.00003725,-0.0
 0008046,0.00002088,-0.00005912,0.00015273,-0.00015718,-0.00002593,-0.0
 0004559,0.00005000,0.00000501,0.00000273,0.00000226,0.00001382,0.00001
 357,-0.00000226,-0.00006550,-0.00003445,0.00000424,-0.00002216,0.00001
 172,-0.00000026,0.00001815,0.00000910,-0.00002617,-0.00000737,0.000058
 04,0.00000484,-0.00009365,-0.00000869,0.00007951,0.00011656,-0.0000425
 1,-0.00001144,-0.00001111,0.00002272,-0.00004595,-0.00009937,-0.000048
 31,-0.00008172,-0.00001966,0.00005371,0.00004503,0.00002017,0.00016595
 ,0.00003230,-0.00009671,-0.00007559,-0.00001777,0.00000990,0.00001699,
 0.00000599,0.00001522,-0.00002527,-0.00002761,-0.00001953,0.00013593,0
 .00002126,0.00001074,0.00001041,-0.00001078,0.00000626,-0.00003178,0.0
 0002182,-0.00000830,0.00001194,-0.00002836,0.00002461,-0.00032585,-0.0
 0023426,-0.00057119,0.13769409,-0.12617975,-0.14621092,-0.17795327,0.1
 5627484,0.12203705,0.00052465,-0.00022066,-0.00006842,-0.00078774,-0.0
 0000776,-0.00000763,-0.00129129,0.00044178,-0.00015283,0.,0.,0.,0.,0.,
 0.,0.,0.,0.,0.00054117,-0.00077341,-0.00012209,0.,0.,0.,0.,0.,0.,0.,0.
 ,0.,0.,0.,0.,0.,0.,0.,0.,0.,0.,0.,0.,0.,0.,0.,0.,0.,0.,0.,0.,0.,0.,0.,
 0.,0.,0.,0.,0.,0.,0.,0.,0.,0.,0.,0.,0.,0.,0.,0.,0.,0.,0.,0.,0.,0.,0.,0
 .,0.,0.,0.,0.,0.,0.,0.,0.,0.,0.,0.,0.,0.,0.,0.,0.,0.,0.,0.,0.,0.,0.,0.
 ,0.,0.,0.,0.,0.,0.,0.,0.,0.,0.,0.,0.,0.,0.,0.,0.00072450,0.00036323,0.
 00006783,0.00156052,-0.00060860,0.00009574,0.00021950,0.00001290,-0.00
 006223,-0.00004495,0.00015350,0.00006984,0.00005405,-0.00009860,0.0002
 6365,0.00039898,-0.00038374,-0.00158968,-0.00035234,0.00054870,0.00149
 350,-0.00282004,-0.00504828,-0.00363138,-0.03930633,-0.00137551,0.0211
 2774,-0.13190937,0.00585777,0.03975709,-0.02528671,-0.03978118,0.01481
 353,-0.00007477,0.00004509,-0.00002157,0.00000340,-0.00002647,-0.00001
 587,-0.00003100,0.00000210,-0.00009259,-0.00010782,0.00001644,0.000150
 69,-0.00005919,0.00000637,0.00021848,-0.00017281,-0.00002850,-0.000128
 37,-0.00086305,0.00046872,0.00204870,-0.00081632,-0.00187308,-0.000675
 44,-0.01283066,0.00693546,0.00778353,0.00040082,0.00245644,0.00403669,
 -0.00008419,0.00003520,-0.00026007,0.00014249,-0.00001888,0.00030253,-
 0.00003317,-0.00005606,-0.00013164,-0.00032012,0.00011958,0.00043918,0
 .00038215,-0.00015882,-0.00007965,-0.00005555,-0.00001313,0.00010164,-
 0.00004350,0.00007571,-0.00010037,0.00002813,0.00002671,0.00001359,0.0
 0013067,-0.00008017,-0.00003962,-0.00004185,0.00003168,0.00003076,-0.0
 0002934,0.00004030,-0.00001104,0.00002814,-0.00002334,0.00002607,-0.00
 001718,0.00001234,-0.00001050,0.00000233,-0.00002234,-0.00002689,0.000
 03310,0.00000922,-0.00000320,0.00000115,-0.00051733,0.00001064,0.00040
 095,0.00065983,0.00045207,-0.00018436,0.00009618,-0.00014186,0.0000998
 4,0.00002117,0.00001841,-0.00015567,-0.00011867,-0.00006994,-0.0002667
 3,-0.00019496,-0.00017116,-0.00007979,-0.00005218,-0.00013809,-0.00004
 346,0.00013386,0.00026704,0.00001723,-0.00006243,-0.00006112,0.0000473
 4,-0.00003126,-0.00003294,-0.00027514,-0.00002400,0.00005685,-0.000021
 57,-0.00000511,-0.00005163,0.00003111,0.00001378,0.00001439,-0.0000482
 7,0.00006312,0.00001200,0.00148886,-0.00010491,0.00033232,-0.11468201,
 -0.02098749,0.02108678,0.01135482,0.04841161,0.00564880,0.31520088,-0.
 00070953,-0.00038465,-0.00020988,0.00149258,0.00168512,0.00059981,0.00
 525607,0.00039672,0.00086453,0.,0.,0.,0.,0.,0.,0.,0.,0.,-0.00223949,0.
 00077477,0.00020401,0.,0.,0.,0.,0.,0.,0.,0.,0.,0.,0.,0.,0.,0.,0.,0.,0.
 ,0.,0.,0.,0.,0.,0.,0.,0.,0.,0.,0.,0.,0.,0.,0.,0.,0.,0.,0.,0.,0.,0.,0.,
 0.,0.,0.,0.,0.,0.,0.,0.,0.,0.,0.,0.,0.,0.,0.,0.,0.,0.,0.,0.,0.,0.,0.,0
 .,0.,0.,0.,0.,0.,0.,0.,0.,0.,0.,0.,0.,0.,0.,0.,0.,0.,0.,0.,0.,0.,0.,0.
 ,0.,0.,0.,0.,0.,0.,-0.00256468,-0.00243053,-0.00040290,-0.00601904,0.0
 0063733,-0.00030253,-0.00001285,-0.00028456,-0.00015582,0.00003969,0.0
 0009995,-0.00005143,-0.00019478,-0.00019699,0.00020642,-0.00058960,0.0
 0030171,0.00027031,0.00021710,0.00237304,0.00069610,-0.00055765,-0.001
 16886,-0.00074429,0.00083419,-0.01539908,0.00047689,0.03007304,-0.0897
 1215,-0.02450620,-0.05854879,-0.04371078,0.01609477,-0.00000983,-0.000
 01838,-0.00001480,0.00005633,0.00003896,-0.00001447,-0.00004899,0.0001
 8379,0.00006590,-0.00008536,-0.00012324,0.00004845,0.00020207,0.000081
 07,-0.00017371,-0.00019862,-0.00038646,-0.00013452,0.00089295,0.000587
 23,-0.00036872,-0.00067266,0.00257663,0.00052115,0.03148348,-0.0114367
 8,-0.01899577,0.02125506,-0.00598187,-0.00688940,-0.00020384,0.0005488
 8,0.00007322,-0.00026761,-0.00042282,-0.00036337,-0.00024559,-0.000092
 48,0.00002833,0.00042378,-0.00029921,0.00005955,-0.00012516,-0.0004369
 2,-0.00019304,0.00019357,0.00009974,-0.00023196,0.00008373,0.00004551,
 0.00010514,-0.00009807,0.00009404,-0.00012836,0.00029303,-0.00012166,-
 0.00005776,-0.00009763,0.00005655,0.00001662,-0.00008410,0.00003793,-0
 .00009090,-0.00004210,-0.00005459,-0.00007259,-0.00004526,0.00002478,-
 0.00004097,0.00003398,0.00001563,0.00005241,0.00007231,0.00000475,-0.0
 0002541,0.00012250,-0.00091745,0.00025856,-0.00014482,0.00083183,0.000
 16773,-0.00019431,0.00019304,-0.00016628,0.00000958,-0.00010135,-0.000
 22478,0.00001259,0.00000951,0.00001111,0.00007805,0.00001165,0.0000969
 9,0.00068123,-0.00075163,0.00001145,0.00008371,-0.00006116,-0.00017395
 ,-0.00008041,0.00006210,0.00009119,-0.00001416,0.00002944,0.00008319,0
 .00030532,0.00000097,0.00004567,0.00005471,0.00002261,0.00004639,-0.00
 011076,0.00003856,-0.00005771,0.00012107,-0.00010450,-0.00001365,-0.00
 106579,0.00129057,-0.00235763,-0.05793969,-0.25349641,0.00420728,0.031
 82693,-0.07475120,-0.01979517,0.00529104,0.48851699,-0.00021259,-0.000
 01530,-0.00020959,0.00034710,0.00035925,0.00029440,0.00099083,0.000168
 39,0.00040715,0.,0.,0.,0.,0.,0.,0.,0.,0.,-0.00047550,0.00027431,-0.000
 14539,0.,0.,0.,0.,0.,0.,0.,0.,0.,0.,0.,0.,0.,0.,0.,0.,0.,0.,0.,0.,0.,0
 .,0.,0.,0.,0.,0.,0.,0.,0.,0.,0.,0.,0.,0.,0.,0.,0.,0.,0.,0.,0.,0.,0.,0.
 ,0.,0.,0.,0.,0.,0.,0.,0.,0.,0.,0.,0.,0.,0.,0.,0.,0.,0.,0.,0.,0.,0.,0.,
 0.,0.,0.,0.,0.,0.,0.,0.,0.,0.,0.,0.,0.,0.,0.,0.,0.,0.,0.,0.,0.,0.,0.,0
 .,0.,-0.00053982,-0.00048975,-0.00020387,-0.00117443,0.00012081,-0.000
 33303,-0.00006987,-0.00006672,-0.00007549,0.00005995,-0.00005108,-0.00
 001487,-0.00006267,0.00005293,-0.00002960,-0.00038054,0.00014741,0.000
 60094,0.00049562,0.00055407,-0.00014176,0.00113123,0.00147948,0.000471
 27,0.01303600,0.00280181,-0.00498660,0.03804648,-0.00991729,-0.0852914
 0,0.01390794,0.00771440,0.02100613,0.00002861,-0.00002797,-0.00001091,
 0.00000343,0.00001502,-0.00000429,-0.00002012,0.00003034,0.00002253,-0
 .00002914,-0.00006055,0.00000258,0.00008461,0.00000399,-0.00009723,-0.
 00015433,-0.00026382,0.00024712,0.00056473,0.00003189,-0.00060138,0.00
 095446,0.00042998,-0.00065867,-0.00755621,0.00184176,0.01078916,0.0338
 3167,-0.01681506,-0.00843943,-0.00015756,0.00013644,0.00002295,0.00010
 188,-0.00009055,-0.00005240,-0.00012129,-0.00003365,0.00001632,0.00016
 646,-0.00008195,0.00018311,0.00009833,-0.00017941,-0.00011899,0.000054
 68,-0.00000518,-0.00007252,0.00003258,0.00002715,0.00001911,-0.0000463
 8,0.00004989,-0.00004987,0.00012056,-0.00010743,-0.00001109,-0.0000464
 8,0.00004357,-0.00000320,-0.00001658,0.00000653,-0.00001618,-0.0000042
 0,-0.00000768,-0.00004039,-0.00002616,0.00000796,-0.00001706,0.0000158
 4,0.00000302,0.00001986,0.00002000,-0.00001114,-0.00000629,0.00000624,
 -0.00022681,-0.00002379,-0.00001137,0.00029412,0.00035640,-0.00007832,
 0.00005511,-0.00005895,-0.00000204,-0.00002610,-0.00009786,-0.00017827
 ,-0.00017627,-0.00008661,0.00007461,0.00003187,0.00002316,0.00023101,0
 .00002834,-0.00046844,-0.00002037,-0.00002781,-0.00003858,-0.00001791,
 0.00002469,0.00003787,-0.00002962,-0.00000195,0.00000758,0.00018006,0.
 00001589,0.00001525,0.00002281,-0.00000074,0.00001776,-0.00004857,0.00
 001841,-0.00001825,0.00004370,-0.00005223,0.00000963,-0.00066674,0.000
 27792,-0.00083675,0.01506222,-0.01182727,-0.07052620,0.00507293,-0.028
 29978,0.01345471,-0.11306863,0.05174694,0.12553575\\0.,0.,0.,0.,0.,0.,
 0.,0.,0.,0.,0.,0.,0.,0.,0.,0.,0.,0.,0.,0.,0.,0.,0.,0.,0.,0.,0.,0.,0.,0
 .,0.,0.,0.,0.,0.,0.,0.,0.,0.,0.,0.,0.,0.,0.,0.,0.,0.,0.,0.,0.,0.,0.,0.
 ,0.,0.,0.,0.,0.,0.,0.,0.,0.,0.,0.,0.,0.,0.,0.,0.,0.,0.,0.,0.,0.,0.,0.,
 0.,0.,0.,0.,0.,0.,0.,0.,0.,0.,0.,0.,0.,0.,0.,0.,0.,0.,0.,0.,0.,0.,0.,0
 .,0.,0.,0.,0.,0.,0.,0.,0.,0.,0.,0.,0.,0.,0.,0.,0.,0.,0.,0.,0.,0.,0.,0.
 ,0.,0.,0.,0.,0.,0.,0.,0.,0.,0.,0.00000001,0.,0.,0.,0.,0.,0.,0.,0.,0.,0
 .,-0.00000001,-0.00000001,0.,0.,0.,0.,0.,0.,0.,0.,0.,0.,0.,0.,0.,0.,0.
 ,0.,0.,0.,0.,0.,0.,0.,0.,0.,0.,0.,0.,0.,0.,0.,0.,0.,0.,0.,0.,0.,0.,0.,
 0.,0.,0.,0.,0.,0.,0.,0.,0.,0.,0.,0.,0.,0.,0.,0.,0.,0.,0.,0.,0.,0.,0.,0
 .,0.,0.,0.,0.,0.,0.,0.,0.,0.,0.,0.,0.,0.,0.,0.,0.,0.,0.,0.,0.,0.,0.,0.
 ,0.,0.,0.,0.,0.,0.,0.,0.,0.,0.,0.,0.,0.,0.,0.,0.,0.,0.,0.,0.,0.,0.,0.,
 0.,0.,0.,0.,0.,0.,0.,0.,0.,0.,0.,0.,0.,0.,0.,0.,0.00000002,-0.00000002
 ,-0.00000001,0.00000001,0.00000001,0.\\\@


 TIMES HAVE CHANGED. IN THE BIBLE WHEN AN ASS
 SPOKE IT WAS CONSIDERED A MIRACLE.
 Job cpu time:       6 days  9 hours 17 minutes 29.0 seconds.
 Elapsed time:       0 days  2 hours 26 minutes  6.3 seconds.
 File lengths (MBytes):  RWF=   7183 Int=      0 D2E=      0 Chk=     85 Scr=      2
 Normal termination of Gaussian 16 at Thu Oct 12 05:09:26 2023.
